;
;   File topol.top  was generated
;   By user: hzerze (124652)
;   On host: tigergpu.princeton.edu
;   At date: Wed. March  3 23:07:23 2021
;
;   This is a standalone topology file
;
;   Created by:
;   ParmEd:       amb2gro_top_gro.py, VERSION 3.2.0
;   Executable:   amb2gro_top_gro.py
;   Library dir:  /usr/local/gromacs/share/gromacs/top
;   Command line:
;     /home/hzerze/PROGRAMS/amber18/AmberTools/src/pymsmt/pymsmt/tools/amb2gro_top_gro.py -p rna.prmtop -c rna.inpcrd -t topol.top -g rna.gro -b rna.pdb
;

[ defaults ]
; nbfunc        comb-rule       gen-pairs       fudgeLJ fudgeQQ
1               2               yes             0.5          0.83333333  

[ atomtypes ]
; name    at.num    mass    charge ptype  sigma      epsilon
HO             1   1.008000  0.00000000  A              0              0
OH             8  16.000000  0.00000000  A     0.30664734      0.8803136
CI             6  12.010000  0.00000000  A     0.33996695      0.4577296
H1             1   1.008000  0.00000000  A      0.2471353      0.0656888
CT             6  12.010000  0.00000000  A     0.33996695      0.4577296
OS             8  16.000000  0.00000000  A     0.30000123        0.71128
H2             1   1.008000  0.00000000  A     0.22931733      0.0656888
NR             7  14.010000  0.00000000  A     0.32890021        0.71128
CP             6  12.010000  0.00000000  A      0.3284993      0.2250992
H5             1   1.008000  0.00000000  A     0.24214627        0.06276
NB             7  14.010000  0.00000000  A     0.32890021        0.71128
CB             6  12.010000  0.00000000  A      0.3284993      0.2250992
C              6  12.010000  0.00000000  A      0.3284993      0.2250992
O              8  16.000000  0.00000000  A     0.29599219        0.87864
NA             7  14.010000  0.00000000  A     0.33507057        0.71128
H              1   1.008000  0.00000000  A              0              0
CA             6  12.010000  0.00000000  A      0.3284993      0.2250992
N2             7  14.010000  0.00000000  A     0.33507057        0.71128
NC             7  14.010000  0.00000000  A     0.33507057        0.71128
OR             8  16.000000  0.00000000  A     0.31569887        0.71128
P             15  30.970000  0.00000000  A     0.37417746         0.8368
OQ             8  16.000000  0.00000000  A     0.31168983        0.87864
N*             7  14.010000  0.00000000  A     0.33507057        0.71128
CS             6  12.010000  0.00000000  A      0.3284993      0.2250992
H4             1   1.008000  0.00000000  A     0.25105526        0.06276
HA             1   1.008000  0.00000000  A     0.25996425        0.06276
C5             6  12.010000  0.00000000  A     0.33004056      0.2661024
CE             6  12.010000  0.00000000  A     0.33004056      0.2661024
CF             6  12.010000  0.00000000  A     0.33004056      0.2661024
ND             7  14.010000  0.00000000  A     0.32890021        0.71128
CQ             6  12.010000  0.00000000  A     0.33004056      0.2661024
C4             6  12.010000  0.00000000  A      0.3284993      0.2250992
Na+           11  22.990000  0.00000000  A     0.24299263      0.1962296
Cl-           17  35.450000  0.00000000  A     0.40446802         0.6276
OW             8  16.000000  0.00000000  A     0.31649997     0.93654656
HW             1   1.008000  0.00000000  A              0              0
EP             0   0.000000  0.00000000  A              0              0


[ moleculetype ]
; Name            nrexcl
system1          3

[ atoms ]
;   nr       type  resnr residue  atom   cgnr    charge       mass  typeB    chargeB      massB
; residue    1 G5 rtp G5 q -0.3
    1         HO      1     G5   HO5'      1 0.42950000   1.008000   ; qtot 0.429500
    2         OH      1     G5    O5'      2 -0.62230000  16.000000   ; qtot -0.192800
    3         CI      1     G5    C5'      3 0.05580000  12.010000   ; qtot -0.137000
    4         H1      1     G5    H5'      4 0.06790000   1.008000   ; qtot -0.069100
    5         H1      1     G5   H5''      5 0.06790000   1.008000   ; qtot -0.001200
    6         CT      1     G5    C4'      6 0.10650000  12.010000   ; qtot 0.105300
    7         H1      1     G5    H4'      7 0.11740000   1.008000   ; qtot 0.222700
    8         OS      1     G5    O4'      8 -0.35480000  16.000000   ; qtot -0.132100
    9         CT      1     G5    C1'      9 0.01910000  12.010000   ; qtot -0.113000
   10         H2      1     G5    H1'     10 0.20060000   1.008000   ; qtot 0.087600
   11         NR      1     G5     N9     11 0.04920000  14.010000   ; qtot 0.136800
   12         CP      1     G5     C8     12 0.13740000  12.010000   ; qtot 0.274200
   13         H5      1     G5     H8     13 0.16400000   1.008000   ; qtot 0.438200
   14         NB      1     G5     N7     14 -0.57090000  14.010000   ; qtot -0.132700
   15         CB      1     G5     C5     15 0.17440000  12.010000   ; qtot 0.041700
   16          C      1     G5     C6     16 0.47700000  12.010000   ; qtot 0.518700
   17          O      1     G5     O6     17 -0.55970000  16.000000   ; qtot -0.041000
   18         NA      1     G5     N1     18 -0.56060000  14.010000   ; qtot -0.601600
   19          H      1     G5     H1     19 0.42430000   1.008000   ; qtot -0.177300
   20         CA      1     G5     C2     20 0.76570000  12.010000   ; qtot 0.588400
   21         N2      1     G5     N2     21 -1.01580000  14.010000   ; qtot -0.427400
   22          H      1     G5    H21     22 0.46070000   1.008000   ; qtot 0.033300
   23          H      1     G5    H22     23 0.46070000   1.008000   ; qtot 0.494000
   24         NC      1     G5     N3     24 -0.63230000  14.010000   ; qtot -0.138300
   25         CB      1     G5     C4     25 0.12220000  12.010000   ; qtot -0.016100
   26         CT      1     G5    C3'     26 0.20220000  12.010000   ; qtot 0.186100
   27         H1      1     G5    H3'     27 0.06150000   1.008000   ; qtot 0.247600
   28         CT      1     G5    C2'     28 0.06700000  12.010000   ; qtot 0.314600
   29         H1      1     G5    H2'     29 0.09720000   1.008000   ; qtot 0.411800
   30         OH      1     G5    O2'     30 -0.61390000  16.000000   ; qtot -0.202100
   31         HO      1     G5   HO2'     31 0.41860000   1.008000   ; qtot 0.216500
   32         OR      1     G5    O3'     32 -0.52460000  16.000000   ; qtot -0.308100
; residue    2 U rtp U q -1.0
   33          P      2      U      P     33 1.16620000  30.970000   ; qtot 0.858100
   34         OQ      2      U    OP1     34 -0.77600000  16.000000   ; qtot 0.082100
   35         OQ      2      U    OP2     35 -0.77600000  16.000000   ; qtot -0.693900
   36         OR      2      U    O5'     36 -0.49890000  16.000000   ; qtot -1.192800
   37         CI      2      U    C5'     37 0.05580000  12.010000   ; qtot -1.137000
   38         H1      2      U    H5'     38 0.06790000   1.008000   ; qtot -1.069100
   39         H1      2      U   H5''     39 0.06790000   1.008000   ; qtot -1.001200
   40         CT      2      U    C4'     40 0.10650000  12.010000   ; qtot -0.894700
   41         H1      2      U    H4'     41 0.11740000   1.008000   ; qtot -0.777300
   42         OS      2      U    O4'     42 -0.35480000  16.000000   ; qtot -1.132100
   43         CT      2      U    C1'     43 0.06740000  12.010000   ; qtot -1.064700
   44         H2      2      U    H1'     44 0.18240000   1.008000   ; qtot -0.882300
   45         N*      2      U     N1     45 0.04180000  14.010000   ; qtot -0.840500
   46         CS      2      U     C6     46 -0.11260000  12.010000   ; qtot -0.953100
   47         H4      2      U     H6     47 0.21880000   1.008000   ; qtot -0.734300
   48         CS      2      U     C5     48 -0.36350000  12.010000   ; qtot -1.097800
   49         HA      2      U     H5     49 0.18110000   1.008000   ; qtot -0.916700
   50          C      2      U     C4     50 0.59520000  12.010000   ; qtot -0.321500
   51          O      2      U     O4     51 -0.57610000  16.000000   ; qtot -0.897600
   52         NA      2      U     N3     52 -0.39130000  14.010000   ; qtot -1.288900
   53          H      2      U     H3     53 0.35180000   1.008000   ; qtot -0.937100
   54          C      2      U     C2     54 0.46870000  12.010000   ; qtot -0.468400
   55          O      2      U     O2     55 -0.54770000  16.000000   ; qtot -1.016100
   56         CT      2      U    C3'     56 0.20220000  12.010000   ; qtot -0.813900
   57         H1      2      U    H3'     57 0.06150000   1.008000   ; qtot -0.752400
   58         CT      2      U    C2'     58 0.06700000  12.010000   ; qtot -0.685400
   59         H1      2      U    H2'     59 0.09720000   1.008000   ; qtot -0.588200
   60         OH      2      U    O2'     60 -0.61390000  16.000000   ; qtot -1.202100
   61         HO      2      U   HO2'     61 0.41860000   1.008000   ; qtot -0.783500
   62         OR      2      U    O3'     62 -0.52460000  16.000000   ; qtot -1.308100
; residue    3 U rtp U q -1.0
   63          P      3      U      P     63 1.16620000  30.970000   ; qtot -0.141900
   64         OQ      3      U    OP1     64 -0.77600000  16.000000   ; qtot -0.917900
   65         OQ      3      U    OP2     65 -0.77600000  16.000000   ; qtot -1.693900
   66         OR      3      U    O5'     66 -0.49890000  16.000000   ; qtot -2.192800
   67         CI      3      U    C5'     67 0.05580000  12.010000   ; qtot -2.137000
   68         H1      3      U    H5'     68 0.06790000   1.008000   ; qtot -2.069100
   69         H1      3      U   H5''     69 0.06790000   1.008000   ; qtot -2.001200
   70         CT      3      U    C4'     70 0.10650000  12.010000   ; qtot -1.894700
   71         H1      3      U    H4'     71 0.11740000   1.008000   ; qtot -1.777300
   72         OS      3      U    O4'     72 -0.35480000  16.000000   ; qtot -2.132100
   73         CT      3      U    C1'     73 0.06740000  12.010000   ; qtot -2.064700
   74         H2      3      U    H1'     74 0.18240000   1.008000   ; qtot -1.882300
   75         N*      3      U     N1     75 0.04180000  14.010000   ; qtot -1.840500
   76         CS      3      U     C6     76 -0.11260000  12.010000   ; qtot -1.953100
   77         H4      3      U     H6     77 0.21880000   1.008000   ; qtot -1.734300
   78         CS      3      U     C5     78 -0.36350000  12.010000   ; qtot -2.097800
   79         HA      3      U     H5     79 0.18110000   1.008000   ; qtot -1.916700
   80          C      3      U     C4     80 0.59520000  12.010000   ; qtot -1.321500
   81          O      3      U     O4     81 -0.57610000  16.000000   ; qtot -1.897600
   82         NA      3      U     N3     82 -0.39130000  14.010000   ; qtot -2.288900
   83          H      3      U     H3     83 0.35180000   1.008000   ; qtot -1.937100
   84          C      3      U     C2     84 0.46870000  12.010000   ; qtot -1.468400
   85          O      3      U     O2     85 -0.54770000  16.000000   ; qtot -2.016100
   86         CT      3      U    C3'     86 0.20220000  12.010000   ; qtot -1.813900
   87         H1      3      U    H3'     87 0.06150000   1.008000   ; qtot -1.752400
   88         CT      3      U    C2'     88 0.06700000  12.010000   ; qtot -1.685400
   89         H1      3      U    H2'     89 0.09720000   1.008000   ; qtot -1.588200
   90         OH      3      U    O2'     90 -0.61390000  16.000000   ; qtot -2.202100
   91         HO      3      U   HO2'     91 0.41860000   1.008000   ; qtot -1.783500
   92         OR      3      U    O3'     92 -0.52460000  16.000000   ; qtot -2.308100
; residue    4 U rtp U q -1.0
   93          P      4      U      P     93 1.16620000  30.970000   ; qtot -1.141900
   94         OQ      4      U    OP1     94 -0.77600000  16.000000   ; qtot -1.917900
   95         OQ      4      U    OP2     95 -0.77600000  16.000000   ; qtot -2.693900
   96         OR      4      U    O5'     96 -0.49890000  16.000000   ; qtot -3.192800
   97         CI      4      U    C5'     97 0.05580000  12.010000   ; qtot -3.137000
   98         H1      4      U    H5'     98 0.06790000   1.008000   ; qtot -3.069100
   99         H1      4      U   H5''     99 0.06790000   1.008000   ; qtot -3.001200
  100         CT      4      U    C4'    100 0.10650000  12.010000   ; qtot -2.894700
  101         H1      4      U    H4'    101 0.11740000   1.008000   ; qtot -2.777300
  102         OS      4      U    O4'    102 -0.35480000  16.000000   ; qtot -3.132100
  103         CT      4      U    C1'    103 0.06740000  12.010000   ; qtot -3.064700
  104         H2      4      U    H1'    104 0.18240000   1.008000   ; qtot -2.882300
  105         N*      4      U     N1    105 0.04180000  14.010000   ; qtot -2.840500
  106         CS      4      U     C6    106 -0.11260000  12.010000   ; qtot -2.953100
  107         H4      4      U     H6    107 0.21880000   1.008000   ; qtot -2.734300
  108         CS      4      U     C5    108 -0.36350000  12.010000   ; qtot -3.097800
  109         HA      4      U     H5    109 0.18110000   1.008000   ; qtot -2.916700
  110          C      4      U     C4    110 0.59520000  12.010000   ; qtot -2.321500
  111          O      4      U     O4    111 -0.57610000  16.000000   ; qtot -2.897600
  112         NA      4      U     N3    112 -0.39130000  14.010000   ; qtot -3.288900
  113          H      4      U     H3    113 0.35180000   1.008000   ; qtot -2.937100
  114          C      4      U     C2    114 0.46870000  12.010000   ; qtot -2.468400
  115          O      4      U     O2    115 -0.54770000  16.000000   ; qtot -3.016100
  116         CT      4      U    C3'    116 0.20220000  12.010000   ; qtot -2.813900
  117         H1      4      U    H3'    117 0.06150000   1.008000   ; qtot -2.752400
  118         CT      4      U    C2'    118 0.06700000  12.010000   ; qtot -2.685400
  119         H1      4      U    H2'    119 0.09720000   1.008000   ; qtot -2.588200
  120         OH      4      U    O2'    120 -0.61390000  16.000000   ; qtot -3.202100
  121         HO      4      U   HO2'    121 0.41860000   1.008000   ; qtot -2.783500
  122         OR      4      U    O3'    122 -0.52460000  16.000000   ; qtot -3.308100
; residue    5 U rtp U q -1.0
  123          P      5      U      P    123 1.16620000  30.970000   ; qtot -2.141900
  124         OQ      5      U    OP1    124 -0.77600000  16.000000   ; qtot -2.917900
  125         OQ      5      U    OP2    125 -0.77600000  16.000000   ; qtot -3.693900
  126         OR      5      U    O5'    126 -0.49890000  16.000000   ; qtot -4.192800
  127         CI      5      U    C5'    127 0.05580000  12.010000   ; qtot -4.137000
  128         H1      5      U    H5'    128 0.06790000   1.008000   ; qtot -4.069100
  129         H1      5      U   H5''    129 0.06790000   1.008000   ; qtot -4.001200
  130         CT      5      U    C4'    130 0.10650000  12.010000   ; qtot -3.894700
  131         H1      5      U    H4'    131 0.11740000   1.008000   ; qtot -3.777300
  132         OS      5      U    O4'    132 -0.35480000  16.000000   ; qtot -4.132100
  133         CT      5      U    C1'    133 0.06740000  12.010000   ; qtot -4.064700
  134         H2      5      U    H1'    134 0.18240000   1.008000   ; qtot -3.882300
  135         N*      5      U     N1    135 0.04180000  14.010000   ; qtot -3.840500
  136         CS      5      U     C6    136 -0.11260000  12.010000   ; qtot -3.953100
  137         H4      5      U     H6    137 0.21880000   1.008000   ; qtot -3.734300
  138         CS      5      U     C5    138 -0.36350000  12.010000   ; qtot -4.097800
  139         HA      5      U     H5    139 0.18110000   1.008000   ; qtot -3.916700
  140          C      5      U     C4    140 0.59520000  12.010000   ; qtot -3.321500
  141          O      5      U     O4    141 -0.57610000  16.000000   ; qtot -3.897600
  142         NA      5      U     N3    142 -0.39130000  14.010000   ; qtot -4.288900
  143          H      5      U     H3    143 0.35180000   1.008000   ; qtot -3.937100
  144          C      5      U     C2    144 0.46870000  12.010000   ; qtot -3.468400
  145          O      5      U     O2    145 -0.54770000  16.000000   ; qtot -4.016100
  146         CT      5      U    C3'    146 0.20220000  12.010000   ; qtot -3.813900
  147         H1      5      U    H3'    147 0.06150000   1.008000   ; qtot -3.752400
  148         CT      5      U    C2'    148 0.06700000  12.010000   ; qtot -3.685400
  149         H1      5      U    H2'    149 0.09720000   1.008000   ; qtot -3.588200
  150         OH      5      U    O2'    150 -0.61390000  16.000000   ; qtot -4.202100
  151         HO      5      U   HO2'    151 0.41860000   1.008000   ; qtot -3.783500
  152         OR      5      U    O3'    152 -0.52460000  16.000000   ; qtot -4.308100
; residue    6 U rtp U q -1.0
  153          P      6      U      P    153 1.16620000  30.970000   ; qtot -3.141900
  154         OQ      6      U    OP1    154 -0.77600000  16.000000   ; qtot -3.917900
  155         OQ      6      U    OP2    155 -0.77600000  16.000000   ; qtot -4.693900
  156         OR      6      U    O5'    156 -0.49890000  16.000000   ; qtot -5.192800
  157         CI      6      U    C5'    157 0.05580000  12.010000   ; qtot -5.137000
  158         H1      6      U    H5'    158 0.06790000   1.008000   ; qtot -5.069100
  159         H1      6      U   H5''    159 0.06790000   1.008000   ; qtot -5.001200
  160         CT      6      U    C4'    160 0.10650000  12.010000   ; qtot -4.894700
  161         H1      6      U    H4'    161 0.11740000   1.008000   ; qtot -4.777300
  162         OS      6      U    O4'    162 -0.35480000  16.000000   ; qtot -5.132100
  163         CT      6      U    C1'    163 0.06740000  12.010000   ; qtot -5.064700
  164         H2      6      U    H1'    164 0.18240000   1.008000   ; qtot -4.882300
  165         N*      6      U     N1    165 0.04180000  14.010000   ; qtot -4.840500
  166         CS      6      U     C6    166 -0.11260000  12.010000   ; qtot -4.953100
  167         H4      6      U     H6    167 0.21880000   1.008000   ; qtot -4.734300
  168         CS      6      U     C5    168 -0.36350000  12.010000   ; qtot -5.097800
  169         HA      6      U     H5    169 0.18110000   1.008000   ; qtot -4.916700
  170          C      6      U     C4    170 0.59520000  12.010000   ; qtot -4.321500
  171          O      6      U     O4    171 -0.57610000  16.000000   ; qtot -4.897600
  172         NA      6      U     N3    172 -0.39130000  14.010000   ; qtot -5.288900
  173          H      6      U     H3    173 0.35180000   1.008000   ; qtot -4.937100
  174          C      6      U     C2    174 0.46870000  12.010000   ; qtot -4.468400
  175          O      6      U     O2    175 -0.54770000  16.000000   ; qtot -5.016100
  176         CT      6      U    C3'    176 0.20220000  12.010000   ; qtot -4.813900
  177         H1      6      U    H3'    177 0.06150000   1.008000   ; qtot -4.752400
  178         CT      6      U    C2'    178 0.06700000  12.010000   ; qtot -4.685400
  179         H1      6      U    H2'    179 0.09720000   1.008000   ; qtot -4.588200
  180         OH      6      U    O2'    180 -0.61390000  16.000000   ; qtot -5.202100
  181         HO      6      U   HO2'    181 0.41860000   1.008000   ; qtot -4.783500
  182         OR      6      U    O3'    182 -0.52460000  16.000000   ; qtot -5.308100
; residue    7 A rtp A q -1.0
  183          P      7      A      P    183 1.16620000  30.970000   ; qtot -4.141900
  184         OQ      7      A    OP1    184 -0.77600000  16.000000   ; qtot -4.917900
  185         OQ      7      A    OP2    185 -0.77600000  16.000000   ; qtot -5.693900
  186         OR      7      A    O5'    186 -0.49890000  16.000000   ; qtot -6.192800
  187         CI      7      A    C5'    187 0.05580000  12.010000   ; qtot -6.137000
  188         H1      7      A    H5'    188 0.06790000   1.008000   ; qtot -6.069100
  189         H1      7      A   H5''    189 0.06790000   1.008000   ; qtot -6.001200
  190         CT      7      A    C4'    190 0.10650000  12.010000   ; qtot -5.894700
  191         H1      7      A    H4'    191 0.11740000   1.008000   ; qtot -5.777300
  192         OS      7      A    O4'    192 -0.35480000  16.000000   ; qtot -6.132100
  193         CT      7      A    C1'    193 0.03940000  12.010000   ; qtot -6.092700
  194         H2      7      A    H1'    194 0.20070000   1.008000   ; qtot -5.892000
  195         NR      7      A     N9    195 -0.02510000  14.010000   ; qtot -5.917100
  196         C5      7      A     C8    196 0.20060000  12.010000   ; qtot -5.716500
  197         H5      7      A     H8    197 0.15530000   1.008000   ; qtot -5.561200
  198         NB      7      A     N7    198 -0.60730000  14.010000   ; qtot -6.168500
  199         CE      7      A     C5    199 0.05150000  12.010000   ; qtot -6.117000
  200         CF      7      A     C6    200 0.70090000  12.010000   ; qtot -5.416100
  201         N2      7      A     N6    201 -1.00880000  14.010000   ; qtot -6.424900
  202          H      7      A    H61    202 0.47380000   1.008000   ; qtot -5.951100
  203          H      7      A    H62    203 0.47380000   1.008000   ; qtot -5.477300
  204         ND      7      A     N1    204 -0.79690000  14.010000   ; qtot -6.274200
  205         CQ      7      A     C2    205 0.58750000  12.010000   ; qtot -5.686700
  206         H5      7      A     H2    206 0.06500000   1.008000   ; qtot -5.621700
  207         ND      7      A     N3    207 -0.69970000  14.010000   ; qtot -6.321400
  208         CE      7      A     C4    208 0.30530000  12.010000   ; qtot -6.016100
  209         CT      7      A    C3'    209 0.20220000  12.010000   ; qtot -5.813900
  210         H1      7      A    H3'    210 0.06150000   1.008000   ; qtot -5.752400
  211         CT      7      A    C2'    211 0.06700000  12.010000   ; qtot -5.685400
  212         H1      7      A    H2'    212 0.09720000   1.008000   ; qtot -5.588200
  213         OH      7      A    O2'    213 -0.61390000  16.000000   ; qtot -6.202100
  214         HO      7      A   HO2'    214 0.41860000   1.008000   ; qtot -5.783500
  215         OR      7      A    O3'    215 -0.52460000  16.000000   ; qtot -6.308100
; residue    8 A rtp A q -1.0
  216          P      8      A      P    216 1.16620000  30.970000   ; qtot -5.141900
  217         OQ      8      A    OP1    217 -0.77600000  16.000000   ; qtot -5.917900
  218         OQ      8      A    OP2    218 -0.77600000  16.000000   ; qtot -6.693900
  219         OR      8      A    O5'    219 -0.49890000  16.000000   ; qtot -7.192800
  220         CI      8      A    C5'    220 0.05580000  12.010000   ; qtot -7.137000
  221         H1      8      A    H5'    221 0.06790000   1.008000   ; qtot -7.069100
  222         H1      8      A   H5''    222 0.06790000   1.008000   ; qtot -7.001200
  223         CT      8      A    C4'    223 0.10650000  12.010000   ; qtot -6.894700
  224         H1      8      A    H4'    224 0.11740000   1.008000   ; qtot -6.777300
  225         OS      8      A    O4'    225 -0.35480000  16.000000   ; qtot -7.132100
  226         CT      8      A    C1'    226 0.03940000  12.010000   ; qtot -7.092700
  227         H2      8      A    H1'    227 0.20070000   1.008000   ; qtot -6.892000
  228         NR      8      A     N9    228 -0.02510000  14.010000   ; qtot -6.917100
  229         C5      8      A     C8    229 0.20060000  12.010000   ; qtot -6.716500
  230         H5      8      A     H8    230 0.15530000   1.008000   ; qtot -6.561200
  231         NB      8      A     N7    231 -0.60730000  14.010000   ; qtot -7.168500
  232         CE      8      A     C5    232 0.05150000  12.010000   ; qtot -7.117000
  233         CF      8      A     C6    233 0.70090000  12.010000   ; qtot -6.416100
  234         N2      8      A     N6    234 -1.00880000  14.010000   ; qtot -7.424900
  235          H      8      A    H61    235 0.47380000   1.008000   ; qtot -6.951100
  236          H      8      A    H62    236 0.47380000   1.008000   ; qtot -6.477300
  237         ND      8      A     N1    237 -0.79690000  14.010000   ; qtot -7.274200
  238         CQ      8      A     C2    238 0.58750000  12.010000   ; qtot -6.686700
  239         H5      8      A     H2    239 0.06500000   1.008000   ; qtot -6.621700
  240         ND      8      A     N3    240 -0.69970000  14.010000   ; qtot -7.321400
  241         CE      8      A     C4    241 0.30530000  12.010000   ; qtot -7.016100
  242         CT      8      A    C3'    242 0.20220000  12.010000   ; qtot -6.813900
  243         H1      8      A    H3'    243 0.06150000   1.008000   ; qtot -6.752400
  244         CT      8      A    C2'    244 0.06700000  12.010000   ; qtot -6.685400
  245         H1      8      A    H2'    245 0.09720000   1.008000   ; qtot -6.588200
  246         OH      8      A    O2'    246 -0.61390000  16.000000   ; qtot -7.202100
  247         HO      8      A   HO2'    247 0.41860000   1.008000   ; qtot -6.783500
  248         OR      8      A    O3'    248 -0.52460000  16.000000   ; qtot -7.308100
; residue    9 A rtp A q -1.0
  249          P      9      A      P    249 1.16620000  30.970000   ; qtot -6.141900
  250         OQ      9      A    OP1    250 -0.77600000  16.000000   ; qtot -6.917900
  251         OQ      9      A    OP2    251 -0.77600000  16.000000   ; qtot -7.693900
  252         OR      9      A    O5'    252 -0.49890000  16.000000   ; qtot -8.192800
  253         CI      9      A    C5'    253 0.05580000  12.010000   ; qtot -8.137000
  254         H1      9      A    H5'    254 0.06790000   1.008000   ; qtot -8.069100
  255         H1      9      A   H5''    255 0.06790000   1.008000   ; qtot -8.001200
  256         CT      9      A    C4'    256 0.10650000  12.010000   ; qtot -7.894700
  257         H1      9      A    H4'    257 0.11740000   1.008000   ; qtot -7.777300
  258         OS      9      A    O4'    258 -0.35480000  16.000000   ; qtot -8.132100
  259         CT      9      A    C1'    259 0.03940000  12.010000   ; qtot -8.092700
  260         H2      9      A    H1'    260 0.20070000   1.008000   ; qtot -7.892000
  261         NR      9      A     N9    261 -0.02510000  14.010000   ; qtot -7.917100
  262         C5      9      A     C8    262 0.20060000  12.010000   ; qtot -7.716500
  263         H5      9      A     H8    263 0.15530000   1.008000   ; qtot -7.561200
  264         NB      9      A     N7    264 -0.60730000  14.010000   ; qtot -8.168500
  265         CE      9      A     C5    265 0.05150000  12.010000   ; qtot -8.117000
  266         CF      9      A     C6    266 0.70090000  12.010000   ; qtot -7.416100
  267         N2      9      A     N6    267 -1.00880000  14.010000   ; qtot -8.424900
  268          H      9      A    H61    268 0.47380000   1.008000   ; qtot -7.951100
  269          H      9      A    H62    269 0.47380000   1.008000   ; qtot -7.477300
  270         ND      9      A     N1    270 -0.79690000  14.010000   ; qtot -8.274200
  271         CQ      9      A     C2    271 0.58750000  12.010000   ; qtot -7.686700
  272         H5      9      A     H2    272 0.06500000   1.008000   ; qtot -7.621700
  273         ND      9      A     N3    273 -0.69970000  14.010000   ; qtot -8.321400
  274         CE      9      A     C4    274 0.30530000  12.010000   ; qtot -8.016100
  275         CT      9      A    C3'    275 0.20220000  12.010000   ; qtot -7.813900
  276         H1      9      A    H3'    276 0.06150000   1.008000   ; qtot -7.752400
  277         CT      9      A    C2'    277 0.06700000  12.010000   ; qtot -7.685400
  278         H1      9      A    H2'    278 0.09720000   1.008000   ; qtot -7.588200
  279         OH      9      A    O2'    279 -0.61390000  16.000000   ; qtot -8.202100
  280         HO      9      A   HO2'    280 0.41860000   1.008000   ; qtot -7.783500
  281         OR      9      A    O3'    281 -0.52460000  16.000000   ; qtot -8.308100
; residue   10 C rtp C q -1.0
  282          P     10      C      P    282 1.16620000  30.970000   ; qtot -7.141900
  283         OQ     10      C    OP1    283 -0.77600000  16.000000   ; qtot -7.917900
  284         OQ     10      C    OP2    284 -0.77600000  16.000000   ; qtot -8.693900
  285         OR     10      C    O5'    285 -0.49890000  16.000000   ; qtot -9.192800
  286         CI     10      C    C5'    286 0.05580000  12.010000   ; qtot -9.137000
  287         H1     10      C    H5'    287 0.06790000   1.008000   ; qtot -9.069100
  288         H1     10      C   H5''    288 0.06790000   1.008000   ; qtot -9.001200
  289         CT     10      C    C4'    289 0.10650000  12.010000   ; qtot -8.894700
  290         H1     10      C    H4'    290 0.11740000   1.008000   ; qtot -8.777300
  291         OS     10      C    O4'    291 -0.35480000  16.000000   ; qtot -9.132100
  292         CT     10      C    C1'    292 0.00660000  12.010000   ; qtot -9.125500
  293         H2     10      C    H1'    293 0.20290000   1.008000   ; qtot -8.922600
  294         N*     10      C     N1    294 -0.04840000  14.010000   ; qtot -8.971000
  295         C4     10      C     C6    295 0.00530000  12.010000   ; qtot -8.965700
  296         H4     10      C     H6    296 0.19580000   1.008000   ; qtot -8.769900
  297         C4     10      C     C5    297 -0.52150000  12.010000   ; qtot -9.291400
  298         HA     10      C     H5    298 0.19280000   1.008000   ; qtot -9.098600
  299         CA     10      C     C4    299 0.81850000  12.010000   ; qtot -8.280100
  300         N2     10      C     N4    300 -0.87160000  14.010000   ; qtot -9.151700
  301          H     10      C    H41    301 0.38270000   1.008000   ; qtot -8.769000
  302          H     10      C    H42    302 0.38270000   1.008000   ; qtot -8.386300
  303         NC     10      C     N3    303 -0.75840000  14.010000   ; qtot -9.144700
  304          C     10      C     C2    304 0.75380000  12.010000   ; qtot -8.390900
  305          O     10      C     O2    305 -0.62520000  16.000000   ; qtot -9.016100
  306         CT     10      C    C3'    306 0.20220000  12.010000   ; qtot -8.813900
  307         H1     10      C    H3'    307 0.06150000   1.008000   ; qtot -8.752400
  308         CT     10      C    C2'    308 0.06700000  12.010000   ; qtot -8.685400
  309         H1     10      C    H2'    309 0.09720000   1.008000   ; qtot -8.588200
  310         OH     10      C    O2'    310 -0.61390000  16.000000   ; qtot -9.202100
  311         HO     10      C   HO2'    311 0.41860000   1.008000   ; qtot -8.783500
  312         OR     10      C    O3'    312 -0.52460000  16.000000   ; qtot -9.308100
; residue   11 G rtp G q -1.0
  313          P     11      G      P    313 1.16620000  30.970000   ; qtot -8.141900
  314         OQ     11      G    OP1    314 -0.77600000  16.000000   ; qtot -8.917900
  315         OQ     11      G    OP2    315 -0.77600000  16.000000   ; qtot -9.693900
  316         OR     11      G    O5'    316 -0.49890000  16.000000   ; qtot -10.192800
  317         CI     11      G    C5'    317 0.05580000  12.010000   ; qtot -10.137000
  318         H1     11      G    H5'    318 0.06790000   1.008000   ; qtot -10.069100
  319         H1     11      G   H5''    319 0.06790000   1.008000   ; qtot -10.001200
  320         CT     11      G    C4'    320 0.10650000  12.010000   ; qtot -9.894700
  321         H1     11      G    H4'    321 0.11740000   1.008000   ; qtot -9.777300
  322         OS     11      G    O4'    322 -0.35480000  16.000000   ; qtot -10.132100
  323         CT     11      G    C1'    323 0.01910000  12.010000   ; qtot -10.113000
  324         H2     11      G    H1'    324 0.20060000   1.008000   ; qtot -9.912400
  325         NR     11      G     N9    325 0.04920000  14.010000   ; qtot -9.863200
  326         CP     11      G     C8    326 0.13740000  12.010000   ; qtot -9.725800
  327         H5     11      G     H8    327 0.16400000   1.008000   ; qtot -9.561800
  328         NB     11      G     N7    328 -0.57090000  14.010000   ; qtot -10.132700
  329         CB     11      G     C5    329 0.17440000  12.010000   ; qtot -9.958300
  330          C     11      G     C6    330 0.47700000  12.010000   ; qtot -9.481300
  331          O     11      G     O6    331 -0.55970000  16.000000   ; qtot -10.041000
  332         NA     11      G     N1    332 -0.56060000  14.010000   ; qtot -10.601600
  333          H     11      G     H1    333 0.42430000   1.008000   ; qtot -10.177300
  334         CA     11      G     C2    334 0.76570000  12.010000   ; qtot -9.411600
  335         N2     11      G     N2    335 -1.01580000  14.010000   ; qtot -10.427400
  336          H     11      G    H21    336 0.46070000   1.008000   ; qtot -9.966700
  337          H     11      G    H22    337 0.46070000   1.008000   ; qtot -9.506000
  338         NC     11      G     N3    338 -0.63230000  14.010000   ; qtot -10.138300
  339         CB     11      G     C4    339 0.12220000  12.010000   ; qtot -10.016100
  340         CT     11      G    C3'    340 0.20220000  12.010000   ; qtot -9.813900
  341         H1     11      G    H3'    341 0.06150000   1.008000   ; qtot -9.752400
  342         CT     11      G    C2'    342 0.06700000  12.010000   ; qtot -9.685400
  343         H1     11      G    H2'    343 0.09720000   1.008000   ; qtot -9.588200
  344         OH     11      G    O2'    344 -0.61390000  16.000000   ; qtot -10.202100
  345         HO     11      G   HO2'    345 0.41860000   1.008000   ; qtot -9.783500
  346         OR     11      G    O3'    346 -0.52460000  16.000000   ; qtot -10.308100
; residue   12 G rtp G q -1.0
  347          P     12      G      P    347 1.16620000  30.970000   ; qtot -9.141900
  348         OQ     12      G    OP1    348 -0.77600000  16.000000   ; qtot -9.917900
  349         OQ     12      G    OP2    349 -0.77600000  16.000000   ; qtot -10.693900
  350         OR     12      G    O5'    350 -0.49890000  16.000000   ; qtot -11.192800
  351         CI     12      G    C5'    351 0.05580000  12.010000   ; qtot -11.137000
  352         H1     12      G    H5'    352 0.06790000   1.008000   ; qtot -11.069100
  353         H1     12      G   H5''    353 0.06790000   1.008000   ; qtot -11.001200
  354         CT     12      G    C4'    354 0.10650000  12.010000   ; qtot -10.894700
  355         H1     12      G    H4'    355 0.11740000   1.008000   ; qtot -10.777300
  356         OS     12      G    O4'    356 -0.35480000  16.000000   ; qtot -11.132100
  357         CT     12      G    C1'    357 0.01910000  12.010000   ; qtot -11.113000
  358         H2     12      G    H1'    358 0.20060000   1.008000   ; qtot -10.912400
  359         NR     12      G     N9    359 0.04920000  14.010000   ; qtot -10.863200
  360         CP     12      G     C8    360 0.13740000  12.010000   ; qtot -10.725800
  361         H5     12      G     H8    361 0.16400000   1.008000   ; qtot -10.561800
  362         NB     12      G     N7    362 -0.57090000  14.010000   ; qtot -11.132700
  363         CB     12      G     C5    363 0.17440000  12.010000   ; qtot -10.958300
  364          C     12      G     C6    364 0.47700000  12.010000   ; qtot -10.481300
  365          O     12      G     O6    365 -0.55970000  16.000000   ; qtot -11.041000
  366         NA     12      G     N1    366 -0.56060000  14.010000   ; qtot -11.601600
  367          H     12      G     H1    367 0.42430000   1.008000   ; qtot -11.177300
  368         CA     12      G     C2    368 0.76570000  12.010000   ; qtot -10.411600
  369         N2     12      G     N2    369 -1.01580000  14.010000   ; qtot -11.427400
  370          H     12      G    H21    370 0.46070000   1.008000   ; qtot -10.966700
  371          H     12      G    H22    371 0.46070000   1.008000   ; qtot -10.506000
  372         NC     12      G     N3    372 -0.63230000  14.010000   ; qtot -11.138300
  373         CB     12      G     C4    373 0.12220000  12.010000   ; qtot -11.016100
  374         CT     12      G    C3'    374 0.20220000  12.010000   ; qtot -10.813900
  375         H1     12      G    H3'    375 0.06150000   1.008000   ; qtot -10.752400
  376         CT     12      G    C2'    376 0.06700000  12.010000   ; qtot -10.685400
  377         H1     12      G    H2'    377 0.09720000   1.008000   ; qtot -10.588200
  378         OH     12      G    O2'    378 -0.61390000  16.000000   ; qtot -11.202100
  379         HO     12      G   HO2'    379 0.41860000   1.008000   ; qtot -10.783500
  380         OR     12      G    O3'    380 -0.52460000  16.000000   ; qtot -11.308100
; residue   13 G rtp G q -1.0
  381          P     13      G      P    381 1.16620000  30.970000   ; qtot -10.141900
  382         OQ     13      G    OP1    382 -0.77600000  16.000000   ; qtot -10.917900
  383         OQ     13      G    OP2    383 -0.77600000  16.000000   ; qtot -11.693900
  384         OR     13      G    O5'    384 -0.49890000  16.000000   ; qtot -12.192800
  385         CI     13      G    C5'    385 0.05580000  12.010000   ; qtot -12.137000
  386         H1     13      G    H5'    386 0.06790000   1.008000   ; qtot -12.069100
  387         H1     13      G   H5''    387 0.06790000   1.008000   ; qtot -12.001200
  388         CT     13      G    C4'    388 0.10650000  12.010000   ; qtot -11.894700
  389         H1     13      G    H4'    389 0.11740000   1.008000   ; qtot -11.777300
  390         OS     13      G    O4'    390 -0.35480000  16.000000   ; qtot -12.132100
  391         CT     13      G    C1'    391 0.01910000  12.010000   ; qtot -12.113000
  392         H2     13      G    H1'    392 0.20060000   1.008000   ; qtot -11.912400
  393         NR     13      G     N9    393 0.04920000  14.010000   ; qtot -11.863200
  394         CP     13      G     C8    394 0.13740000  12.010000   ; qtot -11.725800
  395         H5     13      G     H8    395 0.16400000   1.008000   ; qtot -11.561800
  396         NB     13      G     N7    396 -0.57090000  14.010000   ; qtot -12.132700
  397         CB     13      G     C5    397 0.17440000  12.010000   ; qtot -11.958300
  398          C     13      G     C6    398 0.47700000  12.010000   ; qtot -11.481300
  399          O     13      G     O6    399 -0.55970000  16.000000   ; qtot -12.041000
  400         NA     13      G     N1    400 -0.56060000  14.010000   ; qtot -12.601600
  401          H     13      G     H1    401 0.42430000   1.008000   ; qtot -12.177300
  402         CA     13      G     C2    402 0.76570000  12.010000   ; qtot -11.411600
  403         N2     13      G     N2    403 -1.01580000  14.010000   ; qtot -12.427400
  404          H     13      G    H21    404 0.46070000   1.008000   ; qtot -11.966700
  405          H     13      G    H22    405 0.46070000   1.008000   ; qtot -11.506000
  406         NC     13      G     N3    406 -0.63230000  14.010000   ; qtot -12.138300
  407         CB     13      G     C4    407 0.12220000  12.010000   ; qtot -12.016100
  408         CT     13      G    C3'    408 0.20220000  12.010000   ; qtot -11.813900
  409         H1     13      G    H3'    409 0.06150000   1.008000   ; qtot -11.752400
  410         CT     13      G    C2'    410 0.06700000  12.010000   ; qtot -11.685400
  411         H1     13      G    H2'    411 0.09720000   1.008000   ; qtot -11.588200
  412         OH     13      G    O2'    412 -0.61390000  16.000000   ; qtot -12.202100
  413         HO     13      G   HO2'    413 0.41860000   1.008000   ; qtot -11.783500
  414         OR     13      G    O3'    414 -0.52460000  16.000000   ; qtot -12.308100
; residue   14 U rtp U q -1.0
  415          P     14      U      P    415 1.16620000  30.970000   ; qtot -11.141900
  416         OQ     14      U    OP1    416 -0.77600000  16.000000   ; qtot -11.917900
  417         OQ     14      U    OP2    417 -0.77600000  16.000000   ; qtot -12.693900
  418         OR     14      U    O5'    418 -0.49890000  16.000000   ; qtot -13.192800
  419         CI     14      U    C5'    419 0.05580000  12.010000   ; qtot -13.137000
  420         H1     14      U    H5'    420 0.06790000   1.008000   ; qtot -13.069100
  421         H1     14      U   H5''    421 0.06790000   1.008000   ; qtot -13.001200
  422         CT     14      U    C4'    422 0.10650000  12.010000   ; qtot -12.894700
  423         H1     14      U    H4'    423 0.11740000   1.008000   ; qtot -12.777300
  424         OS     14      U    O4'    424 -0.35480000  16.000000   ; qtot -13.132100
  425         CT     14      U    C1'    425 0.06740000  12.010000   ; qtot -13.064700
  426         H2     14      U    H1'    426 0.18240000   1.008000   ; qtot -12.882300
  427         N*     14      U     N1    427 0.04180000  14.010000   ; qtot -12.840500
  428         CS     14      U     C6    428 -0.11260000  12.010000   ; qtot -12.953100
  429         H4     14      U     H6    429 0.21880000   1.008000   ; qtot -12.734300
  430         CS     14      U     C5    430 -0.36350000  12.010000   ; qtot -13.097800
  431         HA     14      U     H5    431 0.18110000   1.008000   ; qtot -12.916700
  432          C     14      U     C4    432 0.59520000  12.010000   ; qtot -12.321500
  433          O     14      U     O4    433 -0.57610000  16.000000   ; qtot -12.897600
  434         NA     14      U     N3    434 -0.39130000  14.010000   ; qtot -13.288900
  435          H     14      U     H3    435 0.35180000   1.008000   ; qtot -12.937100
  436          C     14      U     C2    436 0.46870000  12.010000   ; qtot -12.468400
  437          O     14      U     O2    437 -0.54770000  16.000000   ; qtot -13.016100
  438         CT     14      U    C3'    438 0.20220000  12.010000   ; qtot -12.813900
  439         H1     14      U    H3'    439 0.06150000   1.008000   ; qtot -12.752400
  440         CT     14      U    C2'    440 0.06700000  12.010000   ; qtot -12.685400
  441         H1     14      U    H2'    441 0.09720000   1.008000   ; qtot -12.588200
  442         OH     14      U    O2'    442 -0.61390000  16.000000   ; qtot -13.202100
  443         HO     14      U   HO2'    443 0.41860000   1.008000   ; qtot -12.783500
  444         OR     14      U    O3'    444 -0.52460000  16.000000   ; qtot -13.308100
; residue   15 U rtp U q -1.0
  445          P     15      U      P    445 1.16620000  30.970000   ; qtot -12.141900
  446         OQ     15      U    OP1    446 -0.77600000  16.000000   ; qtot -12.917900
  447         OQ     15      U    OP2    447 -0.77600000  16.000000   ; qtot -13.693900
  448         OR     15      U    O5'    448 -0.49890000  16.000000   ; qtot -14.192800
  449         CI     15      U    C5'    449 0.05580000  12.010000   ; qtot -14.137000
  450         H1     15      U    H5'    450 0.06790000   1.008000   ; qtot -14.069100
  451         H1     15      U   H5''    451 0.06790000   1.008000   ; qtot -14.001200
  452         CT     15      U    C4'    452 0.10650000  12.010000   ; qtot -13.894700
  453         H1     15      U    H4'    453 0.11740000   1.008000   ; qtot -13.777300
  454         OS     15      U    O4'    454 -0.35480000  16.000000   ; qtot -14.132100
  455         CT     15      U    C1'    455 0.06740000  12.010000   ; qtot -14.064700
  456         H2     15      U    H1'    456 0.18240000   1.008000   ; qtot -13.882300
  457         N*     15      U     N1    457 0.04180000  14.010000   ; qtot -13.840500
  458         CS     15      U     C6    458 -0.11260000  12.010000   ; qtot -13.953100
  459         H4     15      U     H6    459 0.21880000   1.008000   ; qtot -13.734300
  460         CS     15      U     C5    460 -0.36350000  12.010000   ; qtot -14.097800
  461         HA     15      U     H5    461 0.18110000   1.008000   ; qtot -13.916700
  462          C     15      U     C4    462 0.59520000  12.010000   ; qtot -13.321500
  463          O     15      U     O4    463 -0.57610000  16.000000   ; qtot -13.897600
  464         NA     15      U     N3    464 -0.39130000  14.010000   ; qtot -14.288900
  465          H     15      U     H3    465 0.35180000   1.008000   ; qtot -13.937100
  466          C     15      U     C2    466 0.46870000  12.010000   ; qtot -13.468400
  467          O     15      U     O2    467 -0.54770000  16.000000   ; qtot -14.016100
  468         CT     15      U    C3'    468 0.20220000  12.010000   ; qtot -13.813900
  469         H1     15      U    H3'    469 0.06150000   1.008000   ; qtot -13.752400
  470         CT     15      U    C2'    470 0.06700000  12.010000   ; qtot -13.685400
  471         H1     15      U    H2'    471 0.09720000   1.008000   ; qtot -13.588200
  472         OH     15      U    O2'    472 -0.61390000  16.000000   ; qtot -14.202100
  473         HO     15      U   HO2'    473 0.41860000   1.008000   ; qtot -13.783500
  474         OR     15      U    O3'    474 -0.52460000  16.000000   ; qtot -14.308100
; residue   16 U rtp U q -1.0
  475          P     16      U      P    475 1.16620000  30.970000   ; qtot -13.141900
  476         OQ     16      U    OP1    476 -0.77600000  16.000000   ; qtot -13.917900
  477         OQ     16      U    OP2    477 -0.77600000  16.000000   ; qtot -14.693900
  478         OR     16      U    O5'    478 -0.49890000  16.000000   ; qtot -15.192800
  479         CI     16      U    C5'    479 0.05580000  12.010000   ; qtot -15.137000
  480         H1     16      U    H5'    480 0.06790000   1.008000   ; qtot -15.069100
  481         H1     16      U   H5''    481 0.06790000   1.008000   ; qtot -15.001200
  482         CT     16      U    C4'    482 0.10650000  12.010000   ; qtot -14.894700
  483         H1     16      U    H4'    483 0.11740000   1.008000   ; qtot -14.777300
  484         OS     16      U    O4'    484 -0.35480000  16.000000   ; qtot -15.132100
  485         CT     16      U    C1'    485 0.06740000  12.010000   ; qtot -15.064700
  486         H2     16      U    H1'    486 0.18240000   1.008000   ; qtot -14.882300
  487         N*     16      U     N1    487 0.04180000  14.010000   ; qtot -14.840500
  488         CS     16      U     C6    488 -0.11260000  12.010000   ; qtot -14.953100
  489         H4     16      U     H6    489 0.21880000   1.008000   ; qtot -14.734300
  490         CS     16      U     C5    490 -0.36350000  12.010000   ; qtot -15.097800
  491         HA     16      U     H5    491 0.18110000   1.008000   ; qtot -14.916700
  492          C     16      U     C4    492 0.59520000  12.010000   ; qtot -14.321500
  493          O     16      U     O4    493 -0.57610000  16.000000   ; qtot -14.897600
  494         NA     16      U     N3    494 -0.39130000  14.010000   ; qtot -15.288900
  495          H     16      U     H3    495 0.35180000   1.008000   ; qtot -14.937100
  496          C     16      U     C2    496 0.46870000  12.010000   ; qtot -14.468400
  497          O     16      U     O2    497 -0.54770000  16.000000   ; qtot -15.016100
  498         CT     16      U    C3'    498 0.20220000  12.010000   ; qtot -14.813900
  499         H1     16      U    H3'    499 0.06150000   1.008000   ; qtot -14.752400
  500         CT     16      U    C2'    500 0.06700000  12.010000   ; qtot -14.685400
  501         H1     16      U    H2'    501 0.09720000   1.008000   ; qtot -14.588200
  502         OH     16      U    O2'    502 -0.61390000  16.000000   ; qtot -15.202100
  503         HO     16      U   HO2'    503 0.41860000   1.008000   ; qtot -14.783500
  504         OR     16      U    O3'    504 -0.52460000  16.000000   ; qtot -15.308100
; residue   17 G rtp G q -1.0
  505          P     17      G      P    505 1.16620000  30.970000   ; qtot -14.141900
  506         OQ     17      G    OP1    506 -0.77600000  16.000000   ; qtot -14.917900
  507         OQ     17      G    OP2    507 -0.77600000  16.000000   ; qtot -15.693900
  508         OR     17      G    O5'    508 -0.49890000  16.000000   ; qtot -16.192800
  509         CI     17      G    C5'    509 0.05580000  12.010000   ; qtot -16.137000
  510         H1     17      G    H5'    510 0.06790000   1.008000   ; qtot -16.069100
  511         H1     17      G   H5''    511 0.06790000   1.008000   ; qtot -16.001200
  512         CT     17      G    C4'    512 0.10650000  12.010000   ; qtot -15.894700
  513         H1     17      G    H4'    513 0.11740000   1.008000   ; qtot -15.777300
  514         OS     17      G    O4'    514 -0.35480000  16.000000   ; qtot -16.132100
  515         CT     17      G    C1'    515 0.01910000  12.010000   ; qtot -16.113000
  516         H2     17      G    H1'    516 0.20060000   1.008000   ; qtot -15.912400
  517         NR     17      G     N9    517 0.04920000  14.010000   ; qtot -15.863200
  518         CP     17      G     C8    518 0.13740000  12.010000   ; qtot -15.725800
  519         H5     17      G     H8    519 0.16400000   1.008000   ; qtot -15.561800
  520         NB     17      G     N7    520 -0.57090000  14.010000   ; qtot -16.132700
  521         CB     17      G     C5    521 0.17440000  12.010000   ; qtot -15.958300
  522          C     17      G     C6    522 0.47700000  12.010000   ; qtot -15.481300
  523          O     17      G     O6    523 -0.55970000  16.000000   ; qtot -16.041000
  524         NA     17      G     N1    524 -0.56060000  14.010000   ; qtot -16.601600
  525          H     17      G     H1    525 0.42430000   1.008000   ; qtot -16.177300
  526         CA     17      G     C2    526 0.76570000  12.010000   ; qtot -15.411600
  527         N2     17      G     N2    527 -1.01580000  14.010000   ; qtot -16.427400
  528          H     17      G    H21    528 0.46070000   1.008000   ; qtot -15.966700
  529          H     17      G    H22    529 0.46070000   1.008000   ; qtot -15.506000
  530         NC     17      G     N3    530 -0.63230000  14.010000   ; qtot -16.138300
  531         CB     17      G     C4    531 0.12220000  12.010000   ; qtot -16.016100
  532         CT     17      G    C3'    532 0.20220000  12.010000   ; qtot -15.813900
  533         H1     17      G    H3'    533 0.06150000   1.008000   ; qtot -15.752400
  534         CT     17      G    C2'    534 0.06700000  12.010000   ; qtot -15.685400
  535         H1     17      G    H2'    535 0.09720000   1.008000   ; qtot -15.588200
  536         OH     17      G    O2'    536 -0.61390000  16.000000   ; qtot -16.202100
  537         HO     17      G   HO2'    537 0.41860000   1.008000   ; qtot -15.783500
  538         OR     17      G    O3'    538 -0.52460000  16.000000   ; qtot -16.308100
; residue   18 C rtp C q -1.0
  539          P     18      C      P    539 1.16620000  30.970000   ; qtot -15.141900
  540         OQ     18      C    OP1    540 -0.77600000  16.000000   ; qtot -15.917900
  541         OQ     18      C    OP2    541 -0.77600000  16.000000   ; qtot -16.693900
  542         OR     18      C    O5'    542 -0.49890000  16.000000   ; qtot -17.192800
  543         CI     18      C    C5'    543 0.05580000  12.010000   ; qtot -17.137000
  544         H1     18      C    H5'    544 0.06790000   1.008000   ; qtot -17.069100
  545         H1     18      C   H5''    545 0.06790000   1.008000   ; qtot -17.001200
  546         CT     18      C    C4'    546 0.10650000  12.010000   ; qtot -16.894700
  547         H1     18      C    H4'    547 0.11740000   1.008000   ; qtot -16.777300
  548         OS     18      C    O4'    548 -0.35480000  16.000000   ; qtot -17.132100
  549         CT     18      C    C1'    549 0.00660000  12.010000   ; qtot -17.125500
  550         H2     18      C    H1'    550 0.20290000   1.008000   ; qtot -16.922600
  551         N*     18      C     N1    551 -0.04840000  14.010000   ; qtot -16.971000
  552         C4     18      C     C6    552 0.00530000  12.010000   ; qtot -16.965700
  553         H4     18      C     H6    553 0.19580000   1.008000   ; qtot -16.769900
  554         C4     18      C     C5    554 -0.52150000  12.010000   ; qtot -17.291400
  555         HA     18      C     H5    555 0.19280000   1.008000   ; qtot -17.098600
  556         CA     18      C     C4    556 0.81850000  12.010000   ; qtot -16.280100
  557         N2     18      C     N4    557 -0.87160000  14.010000   ; qtot -17.151700
  558          H     18      C    H41    558 0.38270000   1.008000   ; qtot -16.769000
  559          H     18      C    H42    559 0.38270000   1.008000   ; qtot -16.386300
  560         NC     18      C     N3    560 -0.75840000  14.010000   ; qtot -17.144700
  561          C     18      C     C2    561 0.75380000  12.010000   ; qtot -16.390900
  562          O     18      C     O2    562 -0.62520000  16.000000   ; qtot -17.016100
  563         CT     18      C    C3'    563 0.20220000  12.010000   ; qtot -16.813900
  564         H1     18      C    H3'    564 0.06150000   1.008000   ; qtot -16.752400
  565         CT     18      C    C2'    565 0.06700000  12.010000   ; qtot -16.685400
  566         H1     18      C    H2'    566 0.09720000   1.008000   ; qtot -16.588200
  567         OH     18      C    O2'    567 -0.61390000  16.000000   ; qtot -17.202100
  568         HO     18      C   HO2'    568 0.41860000   1.008000   ; qtot -16.783500
  569         OR     18      C    O3'    569 -0.52460000  16.000000   ; qtot -17.308100
; residue   19 G rtp G q -1.0
  570          P     19      G      P    570 1.16620000  30.970000   ; qtot -16.141900
  571         OQ     19      G    OP1    571 -0.77600000  16.000000   ; qtot -16.917900
  572         OQ     19      G    OP2    572 -0.77600000  16.000000   ; qtot -17.693900
  573         OR     19      G    O5'    573 -0.49890000  16.000000   ; qtot -18.192800
  574         CI     19      G    C5'    574 0.05580000  12.010000   ; qtot -18.137000
  575         H1     19      G    H5'    575 0.06790000   1.008000   ; qtot -18.069100
  576         H1     19      G   H5''    576 0.06790000   1.008000   ; qtot -18.001200
  577         CT     19      G    C4'    577 0.10650000  12.010000   ; qtot -17.894700
  578         H1     19      G    H4'    578 0.11740000   1.008000   ; qtot -17.777300
  579         OS     19      G    O4'    579 -0.35480000  16.000000   ; qtot -18.132100
  580         CT     19      G    C1'    580 0.01910000  12.010000   ; qtot -18.113000
  581         H2     19      G    H1'    581 0.20060000   1.008000   ; qtot -17.912400
  582         NR     19      G     N9    582 0.04920000  14.010000   ; qtot -17.863200
  583         CP     19      G     C8    583 0.13740000  12.010000   ; qtot -17.725800
  584         H5     19      G     H8    584 0.16400000   1.008000   ; qtot -17.561800
  585         NB     19      G     N7    585 -0.57090000  14.010000   ; qtot -18.132700
  586         CB     19      G     C5    586 0.17440000  12.010000   ; qtot -17.958300
  587          C     19      G     C6    587 0.47700000  12.010000   ; qtot -17.481300
  588          O     19      G     O6    588 -0.55970000  16.000000   ; qtot -18.041000
  589         NA     19      G     N1    589 -0.56060000  14.010000   ; qtot -18.601600
  590          H     19      G     H1    590 0.42430000   1.008000   ; qtot -18.177300
  591         CA     19      G     C2    591 0.76570000  12.010000   ; qtot -17.411600
  592         N2     19      G     N2    592 -1.01580000  14.010000   ; qtot -18.427400
  593          H     19      G    H21    593 0.46070000   1.008000   ; qtot -17.966700
  594          H     19      G    H22    594 0.46070000   1.008000   ; qtot -17.506000
  595         NC     19      G     N3    595 -0.63230000  14.010000   ; qtot -18.138300
  596         CB     19      G     C4    596 0.12220000  12.010000   ; qtot -18.016100
  597         CT     19      G    C3'    597 0.20220000  12.010000   ; qtot -17.813900
  598         H1     19      G    H3'    598 0.06150000   1.008000   ; qtot -17.752400
  599         CT     19      G    C2'    599 0.06700000  12.010000   ; qtot -17.685400
  600         H1     19      G    H2'    600 0.09720000   1.008000   ; qtot -17.588200
  601         OH     19      G    O2'    601 -0.61390000  16.000000   ; qtot -18.202100
  602         HO     19      G   HO2'    602 0.41860000   1.008000   ; qtot -17.783500
  603         OR     19      G    O3'    603 -0.52460000  16.000000   ; qtot -18.308100
; residue   20 G rtp G q -1.0
  604          P     20      G      P    604 1.16620000  30.970000   ; qtot -17.141900
  605         OQ     20      G    OP1    605 -0.77600000  16.000000   ; qtot -17.917900
  606         OQ     20      G    OP2    606 -0.77600000  16.000000   ; qtot -18.693900
  607         OR     20      G    O5'    607 -0.49890000  16.000000   ; qtot -19.192800
  608         CI     20      G    C5'    608 0.05580000  12.010000   ; qtot -19.137000
  609         H1     20      G    H5'    609 0.06790000   1.008000   ; qtot -19.069100
  610         H1     20      G   H5''    610 0.06790000   1.008000   ; qtot -19.001200
  611         CT     20      G    C4'    611 0.10650000  12.010000   ; qtot -18.894700
  612         H1     20      G    H4'    612 0.11740000   1.008000   ; qtot -18.777300
  613         OS     20      G    O4'    613 -0.35480000  16.000000   ; qtot -19.132100
  614         CT     20      G    C1'    614 0.01910000  12.010000   ; qtot -19.113000
  615         H2     20      G    H1'    615 0.20060000   1.008000   ; qtot -18.912400
  616         NR     20      G     N9    616 0.04920000  14.010000   ; qtot -18.863200
  617         CP     20      G     C8    617 0.13740000  12.010000   ; qtot -18.725800
  618         H5     20      G     H8    618 0.16400000   1.008000   ; qtot -18.561800
  619         NB     20      G     N7    619 -0.57090000  14.010000   ; qtot -19.132700
  620         CB     20      G     C5    620 0.17440000  12.010000   ; qtot -18.958300
  621          C     20      G     C6    621 0.47700000  12.010000   ; qtot -18.481300
  622          O     20      G     O6    622 -0.55970000  16.000000   ; qtot -19.041000
  623         NA     20      G     N1    623 -0.56060000  14.010000   ; qtot -19.601600
  624          H     20      G     H1    624 0.42430000   1.008000   ; qtot -19.177300
  625         CA     20      G     C2    625 0.76570000  12.010000   ; qtot -18.411600
  626         N2     20      G     N2    626 -1.01580000  14.010000   ; qtot -19.427400
  627          H     20      G    H21    627 0.46070000   1.008000   ; qtot -18.966700
  628          H     20      G    H22    628 0.46070000   1.008000   ; qtot -18.506000
  629         NC     20      G     N3    629 -0.63230000  14.010000   ; qtot -19.138300
  630         CB     20      G     C4    630 0.12220000  12.010000   ; qtot -19.016100
  631         CT     20      G    C3'    631 0.20220000  12.010000   ; qtot -18.813900
  632         H1     20      G    H3'    632 0.06150000   1.008000   ; qtot -18.752400
  633         CT     20      G    C2'    633 0.06700000  12.010000   ; qtot -18.685400
  634         H1     20      G    H2'    634 0.09720000   1.008000   ; qtot -18.588200
  635         OH     20      G    O2'    635 -0.61390000  16.000000   ; qtot -19.202100
  636         HO     20      G   HO2'    636 0.41860000   1.008000   ; qtot -18.783500
  637         OR     20      G    O3'    637 -0.52460000  16.000000   ; qtot -19.308100
; residue   21 U rtp U q -1.0
  638          P     21      U      P    638 1.16620000  30.970000   ; qtot -18.141900
  639         OQ     21      U    OP1    639 -0.77600000  16.000000   ; qtot -18.917900
  640         OQ     21      U    OP2    640 -0.77600000  16.000000   ; qtot -19.693900
  641         OR     21      U    O5'    641 -0.49890000  16.000000   ; qtot -20.192800
  642         CI     21      U    C5'    642 0.05580000  12.010000   ; qtot -20.137000
  643         H1     21      U    H5'    643 0.06790000   1.008000   ; qtot -20.069100
  644         H1     21      U   H5''    644 0.06790000   1.008000   ; qtot -20.001200
  645         CT     21      U    C4'    645 0.10650000  12.010000   ; qtot -19.894700
  646         H1     21      U    H4'    646 0.11740000   1.008000   ; qtot -19.777300
  647         OS     21      U    O4'    647 -0.35480000  16.000000   ; qtot -20.132100
  648         CT     21      U    C1'    648 0.06740000  12.010000   ; qtot -20.064700
  649         H2     21      U    H1'    649 0.18240000   1.008000   ; qtot -19.882300
  650         N*     21      U     N1    650 0.04180000  14.010000   ; qtot -19.840500
  651         CS     21      U     C6    651 -0.11260000  12.010000   ; qtot -19.953100
  652         H4     21      U     H6    652 0.21880000   1.008000   ; qtot -19.734300
  653         CS     21      U     C5    653 -0.36350000  12.010000   ; qtot -20.097800
  654         HA     21      U     H5    654 0.18110000   1.008000   ; qtot -19.916700
  655          C     21      U     C4    655 0.59520000  12.010000   ; qtot -19.321500
  656          O     21      U     O4    656 -0.57610000  16.000000   ; qtot -19.897600
  657         NA     21      U     N3    657 -0.39130000  14.010000   ; qtot -20.288900
  658          H     21      U     H3    658 0.35180000   1.008000   ; qtot -19.937100
  659          C     21      U     C2    659 0.46870000  12.010000   ; qtot -19.468400
  660          O     21      U     O2    660 -0.54770000  16.000000   ; qtot -20.016100
  661         CT     21      U    C3'    661 0.20220000  12.010000   ; qtot -19.813900
  662         H1     21      U    H3'    662 0.06150000   1.008000   ; qtot -19.752400
  663         CT     21      U    C2'    663 0.06700000  12.010000   ; qtot -19.685400
  664         H1     21      U    H2'    664 0.09720000   1.008000   ; qtot -19.588200
  665         OH     21      U    O2'    665 -0.61390000  16.000000   ; qtot -20.202100
  666         HO     21      U   HO2'    666 0.41860000   1.008000   ; qtot -19.783500
  667         OR     21      U    O3'    667 -0.52460000  16.000000   ; qtot -20.308100
; residue   22 G rtp G q -1.0
  668          P     22      G      P    668 1.16620000  30.970000   ; qtot -19.141900
  669         OQ     22      G    OP1    669 -0.77600000  16.000000   ; qtot -19.917900
  670         OQ     22      G    OP2    670 -0.77600000  16.000000   ; qtot -20.693900
  671         OR     22      G    O5'    671 -0.49890000  16.000000   ; qtot -21.192800
  672         CI     22      G    C5'    672 0.05580000  12.010000   ; qtot -21.137000
  673         H1     22      G    H5'    673 0.06790000   1.008000   ; qtot -21.069100
  674         H1     22      G   H5''    674 0.06790000   1.008000   ; qtot -21.001200
  675         CT     22      G    C4'    675 0.10650000  12.010000   ; qtot -20.894700
  676         H1     22      G    H4'    676 0.11740000   1.008000   ; qtot -20.777300
  677         OS     22      G    O4'    677 -0.35480000  16.000000   ; qtot -21.132100
  678         CT     22      G    C1'    678 0.01910000  12.010000   ; qtot -21.113000
  679         H2     22      G    H1'    679 0.20060000   1.008000   ; qtot -20.912400
  680         NR     22      G     N9    680 0.04920000  14.010000   ; qtot -20.863200
  681         CP     22      G     C8    681 0.13740000  12.010000   ; qtot -20.725800
  682         H5     22      G     H8    682 0.16400000   1.008000   ; qtot -20.561800
  683         NB     22      G     N7    683 -0.57090000  14.010000   ; qtot -21.132700
  684         CB     22      G     C5    684 0.17440000  12.010000   ; qtot -20.958300
  685          C     22      G     C6    685 0.47700000  12.010000   ; qtot -20.481300
  686          O     22      G     O6    686 -0.55970000  16.000000   ; qtot -21.041000
  687         NA     22      G     N1    687 -0.56060000  14.010000   ; qtot -21.601600
  688          H     22      G     H1    688 0.42430000   1.008000   ; qtot -21.177300
  689         CA     22      G     C2    689 0.76570000  12.010000   ; qtot -20.411600
  690         N2     22      G     N2    690 -1.01580000  14.010000   ; qtot -21.427400
  691          H     22      G    H21    691 0.46070000   1.008000   ; qtot -20.966700
  692          H     22      G    H22    692 0.46070000   1.008000   ; qtot -20.506000
  693         NC     22      G     N3    693 -0.63230000  14.010000   ; qtot -21.138300
  694         CB     22      G     C4    694 0.12220000  12.010000   ; qtot -21.016100
  695         CT     22      G    C3'    695 0.20220000  12.010000   ; qtot -20.813900
  696         H1     22      G    H3'    696 0.06150000   1.008000   ; qtot -20.752400
  697         CT     22      G    C2'    697 0.06700000  12.010000   ; qtot -20.685400
  698         H1     22      G    H2'    698 0.09720000   1.008000   ; qtot -20.588200
  699         OH     22      G    O2'    699 -0.61390000  16.000000   ; qtot -21.202100
  700         HO     22      G   HO2'    700 0.41860000   1.008000   ; qtot -20.783500
  701         OR     22      G    O3'    701 -0.52460000  16.000000   ; qtot -21.308100
; residue   23 U rtp U q -1.0
  702          P     23      U      P    702 1.16620000  30.970000   ; qtot -20.141900
  703         OQ     23      U    OP1    703 -0.77600000  16.000000   ; qtot -20.917900
  704         OQ     23      U    OP2    704 -0.77600000  16.000000   ; qtot -21.693900
  705         OR     23      U    O5'    705 -0.49890000  16.000000   ; qtot -22.192800
  706         CI     23      U    C5'    706 0.05580000  12.010000   ; qtot -22.137000
  707         H1     23      U    H5'    707 0.06790000   1.008000   ; qtot -22.069100
  708         H1     23      U   H5''    708 0.06790000   1.008000   ; qtot -22.001200
  709         CT     23      U    C4'    709 0.10650000  12.010000   ; qtot -21.894700
  710         H1     23      U    H4'    710 0.11740000   1.008000   ; qtot -21.777300
  711         OS     23      U    O4'    711 -0.35480000  16.000000   ; qtot -22.132100
  712         CT     23      U    C1'    712 0.06740000  12.010000   ; qtot -22.064700
  713         H2     23      U    H1'    713 0.18240000   1.008000   ; qtot -21.882300
  714         N*     23      U     N1    714 0.04180000  14.010000   ; qtot -21.840500
  715         CS     23      U     C6    715 -0.11260000  12.010000   ; qtot -21.953100
  716         H4     23      U     H6    716 0.21880000   1.008000   ; qtot -21.734300
  717         CS     23      U     C5    717 -0.36350000  12.010000   ; qtot -22.097800
  718         HA     23      U     H5    718 0.18110000   1.008000   ; qtot -21.916700
  719          C     23      U     C4    719 0.59520000  12.010000   ; qtot -21.321500
  720          O     23      U     O4    720 -0.57610000  16.000000   ; qtot -21.897600
  721         NA     23      U     N3    721 -0.39130000  14.010000   ; qtot -22.288900
  722          H     23      U     H3    722 0.35180000   1.008000   ; qtot -21.937100
  723          C     23      U     C2    723 0.46870000  12.010000   ; qtot -21.468400
  724          O     23      U     O2    724 -0.54770000  16.000000   ; qtot -22.016100
  725         CT     23      U    C3'    725 0.20220000  12.010000   ; qtot -21.813900
  726         H1     23      U    H3'    726 0.06150000   1.008000   ; qtot -21.752400
  727         CT     23      U    C2'    727 0.06700000  12.010000   ; qtot -21.685400
  728         H1     23      U    H2'    728 0.09720000   1.008000   ; qtot -21.588200
  729         OH     23      U    O2'    729 -0.61390000  16.000000   ; qtot -22.202100
  730         HO     23      U   HO2'    730 0.41860000   1.008000   ; qtot -21.783500
  731         OR     23      U    O3'    731 -0.52460000  16.000000   ; qtot -22.308100
; residue   24 A rtp A q -1.0
  732          P     24      A      P    732 1.16620000  30.970000   ; qtot -21.141900
  733         OQ     24      A    OP1    733 -0.77600000  16.000000   ; qtot -21.917900
  734         OQ     24      A    OP2    734 -0.77600000  16.000000   ; qtot -22.693900
  735         OR     24      A    O5'    735 -0.49890000  16.000000   ; qtot -23.192800
  736         CI     24      A    C5'    736 0.05580000  12.010000   ; qtot -23.137000
  737         H1     24      A    H5'    737 0.06790000   1.008000   ; qtot -23.069100
  738         H1     24      A   H5''    738 0.06790000   1.008000   ; qtot -23.001200
  739         CT     24      A    C4'    739 0.10650000  12.010000   ; qtot -22.894700
  740         H1     24      A    H4'    740 0.11740000   1.008000   ; qtot -22.777300
  741         OS     24      A    O4'    741 -0.35480000  16.000000   ; qtot -23.132100
  742         CT     24      A    C1'    742 0.03940000  12.010000   ; qtot -23.092700
  743         H2     24      A    H1'    743 0.20070000   1.008000   ; qtot -22.892000
  744         NR     24      A     N9    744 -0.02510000  14.010000   ; qtot -22.917100
  745         C5     24      A     C8    745 0.20060000  12.010000   ; qtot -22.716500
  746         H5     24      A     H8    746 0.15530000   1.008000   ; qtot -22.561200
  747         NB     24      A     N7    747 -0.60730000  14.010000   ; qtot -23.168500
  748         CE     24      A     C5    748 0.05150000  12.010000   ; qtot -23.117000
  749         CF     24      A     C6    749 0.70090000  12.010000   ; qtot -22.416100
  750         N2     24      A     N6    750 -1.00880000  14.010000   ; qtot -23.424900
  751          H     24      A    H61    751 0.47380000   1.008000   ; qtot -22.951100
  752          H     24      A    H62    752 0.47380000   1.008000   ; qtot -22.477300
  753         ND     24      A     N1    753 -0.79690000  14.010000   ; qtot -23.274200
  754         CQ     24      A     C2    754 0.58750000  12.010000   ; qtot -22.686700
  755         H5     24      A     H2    755 0.06500000   1.008000   ; qtot -22.621700
  756         ND     24      A     N3    756 -0.69970000  14.010000   ; qtot -23.321400
  757         CE     24      A     C4    757 0.30530000  12.010000   ; qtot -23.016100
  758         CT     24      A    C3'    758 0.20220000  12.010000   ; qtot -22.813900
  759         H1     24      A    H3'    759 0.06150000   1.008000   ; qtot -22.752400
  760         CT     24      A    C2'    760 0.06700000  12.010000   ; qtot -22.685400
  761         H1     24      A    H2'    761 0.09720000   1.008000   ; qtot -22.588200
  762         OH     24      A    O2'    762 -0.61390000  16.000000   ; qtot -23.202100
  763         HO     24      A   HO2'    763 0.41860000   1.008000   ; qtot -22.783500
  764         OR     24      A    O3'    764 -0.52460000  16.000000   ; qtot -23.308100
; residue   25 A rtp A q -1.0
  765          P     25      A      P    765 1.16620000  30.970000   ; qtot -22.141900
  766         OQ     25      A    OP1    766 -0.77600000  16.000000   ; qtot -22.917900
  767         OQ     25      A    OP2    767 -0.77600000  16.000000   ; qtot -23.693900
  768         OR     25      A    O5'    768 -0.49890000  16.000000   ; qtot -24.192800
  769         CI     25      A    C5'    769 0.05580000  12.010000   ; qtot -24.137000
  770         H1     25      A    H5'    770 0.06790000   1.008000   ; qtot -24.069100
  771         H1     25      A   H5''    771 0.06790000   1.008000   ; qtot -24.001200
  772         CT     25      A    C4'    772 0.10650000  12.010000   ; qtot -23.894700
  773         H1     25      A    H4'    773 0.11740000   1.008000   ; qtot -23.777300
  774         OS     25      A    O4'    774 -0.35480000  16.000000   ; qtot -24.132100
  775         CT     25      A    C1'    775 0.03940000  12.010000   ; qtot -24.092700
  776         H2     25      A    H1'    776 0.20070000   1.008000   ; qtot -23.892000
  777         NR     25      A     N9    777 -0.02510000  14.010000   ; qtot -23.917100
  778         C5     25      A     C8    778 0.20060000  12.010000   ; qtot -23.716500
  779         H5     25      A     H8    779 0.15530000   1.008000   ; qtot -23.561200
  780         NB     25      A     N7    780 -0.60730000  14.010000   ; qtot -24.168500
  781         CE     25      A     C5    781 0.05150000  12.010000   ; qtot -24.117000
  782         CF     25      A     C6    782 0.70090000  12.010000   ; qtot -23.416100
  783         N2     25      A     N6    783 -1.00880000  14.010000   ; qtot -24.424900
  784          H     25      A    H61    784 0.47380000   1.008000   ; qtot -23.951100
  785          H     25      A    H62    785 0.47380000   1.008000   ; qtot -23.477300
  786         ND     25      A     N1    786 -0.79690000  14.010000   ; qtot -24.274200
  787         CQ     25      A     C2    787 0.58750000  12.010000   ; qtot -23.686700
  788         H5     25      A     H2    788 0.06500000   1.008000   ; qtot -23.621700
  789         ND     25      A     N3    789 -0.69970000  14.010000   ; qtot -24.321400
  790         CE     25      A     C4    790 0.30530000  12.010000   ; qtot -24.016100
  791         CT     25      A    C3'    791 0.20220000  12.010000   ; qtot -23.813900
  792         H1     25      A    H3'    792 0.06150000   1.008000   ; qtot -23.752400
  793         CT     25      A    C2'    793 0.06700000  12.010000   ; qtot -23.685400
  794         H1     25      A    H2'    794 0.09720000   1.008000   ; qtot -23.588200
  795         OH     25      A    O2'    795 -0.61390000  16.000000   ; qtot -24.202100
  796         HO     25      A   HO2'    796 0.41860000   1.008000   ; qtot -23.783500
  797         OR     25      A    O3'    797 -0.52460000  16.000000   ; qtot -24.308100
; residue   26 G rtp G q -1.0
  798          P     26      G      P    798 1.16620000  30.970000   ; qtot -23.141900
  799         OQ     26      G    OP1    799 -0.77600000  16.000000   ; qtot -23.917900
  800         OQ     26      G    OP2    800 -0.77600000  16.000000   ; qtot -24.693900
  801         OR     26      G    O5'    801 -0.49890000  16.000000   ; qtot -25.192800
  802         CI     26      G    C5'    802 0.05580000  12.010000   ; qtot -25.137000
  803         H1     26      G    H5'    803 0.06790000   1.008000   ; qtot -25.069100
  804         H1     26      G   H5''    804 0.06790000   1.008000   ; qtot -25.001200
  805         CT     26      G    C4'    805 0.10650000  12.010000   ; qtot -24.894700
  806         H1     26      G    H4'    806 0.11740000   1.008000   ; qtot -24.777300
  807         OS     26      G    O4'    807 -0.35480000  16.000000   ; qtot -25.132100
  808         CT     26      G    C1'    808 0.01910000  12.010000   ; qtot -25.113000
  809         H2     26      G    H1'    809 0.20060000   1.008000   ; qtot -24.912400
  810         NR     26      G     N9    810 0.04920000  14.010000   ; qtot -24.863200
  811         CP     26      G     C8    811 0.13740000  12.010000   ; qtot -24.725800
  812         H5     26      G     H8    812 0.16400000   1.008000   ; qtot -24.561800
  813         NB     26      G     N7    813 -0.57090000  14.010000   ; qtot -25.132700
  814         CB     26      G     C5    814 0.17440000  12.010000   ; qtot -24.958300
  815          C     26      G     C6    815 0.47700000  12.010000   ; qtot -24.481300
  816          O     26      G     O6    816 -0.55970000  16.000000   ; qtot -25.041000
  817         NA     26      G     N1    817 -0.56060000  14.010000   ; qtot -25.601600
  818          H     26      G     H1    818 0.42430000   1.008000   ; qtot -25.177300
  819         CA     26      G     C2    819 0.76570000  12.010000   ; qtot -24.411600
  820         N2     26      G     N2    820 -1.01580000  14.010000   ; qtot -25.427400
  821          H     26      G    H21    821 0.46070000   1.008000   ; qtot -24.966700
  822          H     26      G    H22    822 0.46070000   1.008000   ; qtot -24.506000
  823         NC     26      G     N3    823 -0.63230000  14.010000   ; qtot -25.138300
  824         CB     26      G     C4    824 0.12220000  12.010000   ; qtot -25.016100
  825         CT     26      G    C3'    825 0.20220000  12.010000   ; qtot -24.813900
  826         H1     26      G    H3'    826 0.06150000   1.008000   ; qtot -24.752400
  827         CT     26      G    C2'    827 0.06700000  12.010000   ; qtot -24.685400
  828         H1     26      G    H2'    828 0.09720000   1.008000   ; qtot -24.588200
  829         OH     26      G    O2'    829 -0.61390000  16.000000   ; qtot -25.202100
  830         HO     26      G   HO2'    830 0.41860000   1.008000   ; qtot -24.783500
  831         OR     26      G    O3'    831 -0.52460000  16.000000   ; qtot -25.308100
; residue   27 U rtp U q -1.0
  832          P     27      U      P    832 1.16620000  30.970000   ; qtot -24.141900
  833         OQ     27      U    OP1    833 -0.77600000  16.000000   ; qtot -24.917900
  834         OQ     27      U    OP2    834 -0.77600000  16.000000   ; qtot -25.693900
  835         OR     27      U    O5'    835 -0.49890000  16.000000   ; qtot -26.192800
  836         CI     27      U    C5'    836 0.05580000  12.010000   ; qtot -26.137000
  837         H1     27      U    H5'    837 0.06790000   1.008000   ; qtot -26.069100
  838         H1     27      U   H5''    838 0.06790000   1.008000   ; qtot -26.001200
  839         CT     27      U    C4'    839 0.10650000  12.010000   ; qtot -25.894700
  840         H1     27      U    H4'    840 0.11740000   1.008000   ; qtot -25.777300
  841         OS     27      U    O4'    841 -0.35480000  16.000000   ; qtot -26.132100
  842         CT     27      U    C1'    842 0.06740000  12.010000   ; qtot -26.064700
  843         H2     27      U    H1'    843 0.18240000   1.008000   ; qtot -25.882300
  844         N*     27      U     N1    844 0.04180000  14.010000   ; qtot -25.840500
  845         CS     27      U     C6    845 -0.11260000  12.010000   ; qtot -25.953100
  846         H4     27      U     H6    846 0.21880000   1.008000   ; qtot -25.734300
  847         CS     27      U     C5    847 -0.36350000  12.010000   ; qtot -26.097800
  848         HA     27      U     H5    848 0.18110000   1.008000   ; qtot -25.916700
  849          C     27      U     C4    849 0.59520000  12.010000   ; qtot -25.321500
  850          O     27      U     O4    850 -0.57610000  16.000000   ; qtot -25.897600
  851         NA     27      U     N3    851 -0.39130000  14.010000   ; qtot -26.288900
  852          H     27      U     H3    852 0.35180000   1.008000   ; qtot -25.937100
  853          C     27      U     C2    853 0.46870000  12.010000   ; qtot -25.468400
  854          O     27      U     O2    854 -0.54770000  16.000000   ; qtot -26.016100
  855         CT     27      U    C3'    855 0.20220000  12.010000   ; qtot -25.813900
  856         H1     27      U    H3'    856 0.06150000   1.008000   ; qtot -25.752400
  857         CT     27      U    C2'    857 0.06700000  12.010000   ; qtot -25.685400
  858         H1     27      U    H2'    858 0.09720000   1.008000   ; qtot -25.588200
  859         OH     27      U    O2'    859 -0.61390000  16.000000   ; qtot -26.202100
  860         HO     27      U   HO2'    860 0.41860000   1.008000   ; qtot -25.783500
  861         OR     27      U    O3'    861 -0.52460000  16.000000   ; qtot -26.308100
; residue   28 G rtp G q -1.0
  862          P     28      G      P    862 1.16620000  30.970000   ; qtot -25.141900
  863         OQ     28      G    OP1    863 -0.77600000  16.000000   ; qtot -25.917900
  864         OQ     28      G    OP2    864 -0.77600000  16.000000   ; qtot -26.693900
  865         OR     28      G    O5'    865 -0.49890000  16.000000   ; qtot -27.192800
  866         CI     28      G    C5'    866 0.05580000  12.010000   ; qtot -27.137000
  867         H1     28      G    H5'    867 0.06790000   1.008000   ; qtot -27.069100
  868         H1     28      G   H5''    868 0.06790000   1.008000   ; qtot -27.001200
  869         CT     28      G    C4'    869 0.10650000  12.010000   ; qtot -26.894700
  870         H1     28      G    H4'    870 0.11740000   1.008000   ; qtot -26.777300
  871         OS     28      G    O4'    871 -0.35480000  16.000000   ; qtot -27.132100
  872         CT     28      G    C1'    872 0.01910000  12.010000   ; qtot -27.113000
  873         H2     28      G    H1'    873 0.20060000   1.008000   ; qtot -26.912400
  874         NR     28      G     N9    874 0.04920000  14.010000   ; qtot -26.863200
  875         CP     28      G     C8    875 0.13740000  12.010000   ; qtot -26.725800
  876         H5     28      G     H8    876 0.16400000   1.008000   ; qtot -26.561800
  877         NB     28      G     N7    877 -0.57090000  14.010000   ; qtot -27.132700
  878         CB     28      G     C5    878 0.17440000  12.010000   ; qtot -26.958300
  879          C     28      G     C6    879 0.47700000  12.010000   ; qtot -26.481300
  880          O     28      G     O6    880 -0.55970000  16.000000   ; qtot -27.041000
  881         NA     28      G     N1    881 -0.56060000  14.010000   ; qtot -27.601600
  882          H     28      G     H1    882 0.42430000   1.008000   ; qtot -27.177300
  883         CA     28      G     C2    883 0.76570000  12.010000   ; qtot -26.411600
  884         N2     28      G     N2    884 -1.01580000  14.010000   ; qtot -27.427400
  885          H     28      G    H21    885 0.46070000   1.008000   ; qtot -26.966700
  886          H     28      G    H22    886 0.46070000   1.008000   ; qtot -26.506000
  887         NC     28      G     N3    887 -0.63230000  14.010000   ; qtot -27.138300
  888         CB     28      G     C4    888 0.12220000  12.010000   ; qtot -27.016100
  889         CT     28      G    C3'    889 0.20220000  12.010000   ; qtot -26.813900
  890         H1     28      G    H3'    890 0.06150000   1.008000   ; qtot -26.752400
  891         CT     28      G    C2'    891 0.06700000  12.010000   ; qtot -26.685400
  892         H1     28      G    H2'    892 0.09720000   1.008000   ; qtot -26.588200
  893         OH     28      G    O2'    893 -0.61390000  16.000000   ; qtot -27.202100
  894         HO     28      G   HO2'    894 0.41860000   1.008000   ; qtot -26.783500
  895         OR     28      G    O3'    895 -0.52460000  16.000000   ; qtot -27.308100
; residue   29 C rtp C q -1.0
  896          P     29      C      P    896 1.16620000  30.970000   ; qtot -26.141900
  897         OQ     29      C    OP1    897 -0.77600000  16.000000   ; qtot -26.917900
  898         OQ     29      C    OP2    898 -0.77600000  16.000000   ; qtot -27.693900
  899         OR     29      C    O5'    899 -0.49890000  16.000000   ; qtot -28.192800
  900         CI     29      C    C5'    900 0.05580000  12.010000   ; qtot -28.137000
  901         H1     29      C    H5'    901 0.06790000   1.008000   ; qtot -28.069100
  902         H1     29      C   H5''    902 0.06790000   1.008000   ; qtot -28.001200
  903         CT     29      C    C4'    903 0.10650000  12.010000   ; qtot -27.894700
  904         H1     29      C    H4'    904 0.11740000   1.008000   ; qtot -27.777300
  905         OS     29      C    O4'    905 -0.35480000  16.000000   ; qtot -28.132100
  906         CT     29      C    C1'    906 0.00660000  12.010000   ; qtot -28.125500
  907         H2     29      C    H1'    907 0.20290000   1.008000   ; qtot -27.922600
  908         N*     29      C     N1    908 -0.04840000  14.010000   ; qtot -27.971000
  909         C4     29      C     C6    909 0.00530000  12.010000   ; qtot -27.965700
  910         H4     29      C     H6    910 0.19580000   1.008000   ; qtot -27.769900
  911         C4     29      C     C5    911 -0.52150000  12.010000   ; qtot -28.291400
  912         HA     29      C     H5    912 0.19280000   1.008000   ; qtot -28.098600
  913         CA     29      C     C4    913 0.81850000  12.010000   ; qtot -27.280100
  914         N2     29      C     N4    914 -0.87160000  14.010000   ; qtot -28.151700
  915          H     29      C    H41    915 0.38270000   1.008000   ; qtot -27.769000
  916          H     29      C    H42    916 0.38270000   1.008000   ; qtot -27.386300
  917         NC     29      C     N3    917 -0.75840000  14.010000   ; qtot -28.144700
  918          C     29      C     C2    918 0.75380000  12.010000   ; qtot -27.390900
  919          O     29      C     O2    919 -0.62520000  16.000000   ; qtot -28.016100
  920         CT     29      C    C3'    920 0.20220000  12.010000   ; qtot -27.813900
  921         H1     29      C    H3'    921 0.06150000   1.008000   ; qtot -27.752400
  922         CT     29      C    C2'    922 0.06700000  12.010000   ; qtot -27.685400
  923         H1     29      C    H2'    923 0.09720000   1.008000   ; qtot -27.588200
  924         OH     29      C    O2'    924 -0.61390000  16.000000   ; qtot -28.202100
  925         HO     29      C   HO2'    925 0.41860000   1.008000   ; qtot -27.783500
  926         OR     29      C    O3'    926 -0.52460000  16.000000   ; qtot -28.308100
; residue   30 A rtp A q -1.0
  927          P     30      A      P    927 1.16620000  30.970000   ; qtot -27.141900
  928         OQ     30      A    OP1    928 -0.77600000  16.000000   ; qtot -27.917900
  929         OQ     30      A    OP2    929 -0.77600000  16.000000   ; qtot -28.693900
  930         OR     30      A    O5'    930 -0.49890000  16.000000   ; qtot -29.192800
  931         CI     30      A    C5'    931 0.05580000  12.010000   ; qtot -29.137000
  932         H1     30      A    H5'    932 0.06790000   1.008000   ; qtot -29.069100
  933         H1     30      A   H5''    933 0.06790000   1.008000   ; qtot -29.001200
  934         CT     30      A    C4'    934 0.10650000  12.010000   ; qtot -28.894700
  935         H1     30      A    H4'    935 0.11740000   1.008000   ; qtot -28.777300
  936         OS     30      A    O4'    936 -0.35480000  16.000000   ; qtot -29.132100
  937         CT     30      A    C1'    937 0.03940000  12.010000   ; qtot -29.092700
  938         H2     30      A    H1'    938 0.20070000   1.008000   ; qtot -28.892000
  939         NR     30      A     N9    939 -0.02510000  14.010000   ; qtot -28.917100
  940         C5     30      A     C8    940 0.20060000  12.010000   ; qtot -28.716500
  941         H5     30      A     H8    941 0.15530000   1.008000   ; qtot -28.561200
  942         NB     30      A     N7    942 -0.60730000  14.010000   ; qtot -29.168500
  943         CE     30      A     C5    943 0.05150000  12.010000   ; qtot -29.117000
  944         CF     30      A     C6    944 0.70090000  12.010000   ; qtot -28.416100
  945         N2     30      A     N6    945 -1.00880000  14.010000   ; qtot -29.424900
  946          H     30      A    H61    946 0.47380000   1.008000   ; qtot -28.951100
  947          H     30      A    H62    947 0.47380000   1.008000   ; qtot -28.477300
  948         ND     30      A     N1    948 -0.79690000  14.010000   ; qtot -29.274200
  949         CQ     30      A     C2    949 0.58750000  12.010000   ; qtot -28.686700
  950         H5     30      A     H2    950 0.06500000   1.008000   ; qtot -28.621700
  951         ND     30      A     N3    951 -0.69970000  14.010000   ; qtot -29.321400
  952         CE     30      A     C4    952 0.30530000  12.010000   ; qtot -29.016100
  953         CT     30      A    C3'    953 0.20220000  12.010000   ; qtot -28.813900
  954         H1     30      A    H3'    954 0.06150000   1.008000   ; qtot -28.752400
  955         CT     30      A    C2'    955 0.06700000  12.010000   ; qtot -28.685400
  956         H1     30      A    H2'    956 0.09720000   1.008000   ; qtot -28.588200
  957         OH     30      A    O2'    957 -0.61390000  16.000000   ; qtot -29.202100
  958         HO     30      A   HO2'    958 0.41860000   1.008000   ; qtot -28.783500
  959         OR     30      A    O3'    959 -0.52460000  16.000000   ; qtot -29.308100
; residue   31 G rtp G q -1.0
  960          P     31      G      P    960 1.16620000  30.970000   ; qtot -28.141900
  961         OQ     31      G    OP1    961 -0.77600000  16.000000   ; qtot -28.917900
  962         OQ     31      G    OP2    962 -0.77600000  16.000000   ; qtot -29.693900
  963         OR     31      G    O5'    963 -0.49890000  16.000000   ; qtot -30.192800
  964         CI     31      G    C5'    964 0.05580000  12.010000   ; qtot -30.137000
  965         H1     31      G    H5'    965 0.06790000   1.008000   ; qtot -30.069100
  966         H1     31      G   H5''    966 0.06790000   1.008000   ; qtot -30.001200
  967         CT     31      G    C4'    967 0.10650000  12.010000   ; qtot -29.894700
  968         H1     31      G    H4'    968 0.11740000   1.008000   ; qtot -29.777300
  969         OS     31      G    O4'    969 -0.35480000  16.000000   ; qtot -30.132100
  970         CT     31      G    C1'    970 0.01910000  12.010000   ; qtot -30.113000
  971         H2     31      G    H1'    971 0.20060000   1.008000   ; qtot -29.912400
  972         NR     31      G     N9    972 0.04920000  14.010000   ; qtot -29.863200
  973         CP     31      G     C8    973 0.13740000  12.010000   ; qtot -29.725800
  974         H5     31      G     H8    974 0.16400000   1.008000   ; qtot -29.561800
  975         NB     31      G     N7    975 -0.57090000  14.010000   ; qtot -30.132700
  976         CB     31      G     C5    976 0.17440000  12.010000   ; qtot -29.958300
  977          C     31      G     C6    977 0.47700000  12.010000   ; qtot -29.481300
  978          O     31      G     O6    978 -0.55970000  16.000000   ; qtot -30.041000
  979         NA     31      G     N1    979 -0.56060000  14.010000   ; qtot -30.601600
  980          H     31      G     H1    980 0.42430000   1.008000   ; qtot -30.177300
  981         CA     31      G     C2    981 0.76570000  12.010000   ; qtot -29.411600
  982         N2     31      G     N2    982 -1.01580000  14.010000   ; qtot -30.427400
  983          H     31      G    H21    983 0.46070000   1.008000   ; qtot -29.966700
  984          H     31      G    H22    984 0.46070000   1.008000   ; qtot -29.506000
  985         NC     31      G     N3    985 -0.63230000  14.010000   ; qtot -30.138300
  986         CB     31      G     C4    986 0.12220000  12.010000   ; qtot -30.016100
  987         CT     31      G    C3'    987 0.20220000  12.010000   ; qtot -29.813900
  988         H1     31      G    H3'    988 0.06150000   1.008000   ; qtot -29.752400
  989         CT     31      G    C2'    989 0.06700000  12.010000   ; qtot -29.685400
  990         H1     31      G    H2'    990 0.09720000   1.008000   ; qtot -29.588200
  991         OH     31      G    O2'    991 -0.61390000  16.000000   ; qtot -30.202100
  992         HO     31      G   HO2'    992 0.41860000   1.008000   ; qtot -29.783500
  993         OR     31      G    O3'    993 -0.52460000  16.000000   ; qtot -30.308100
; residue   32 C rtp C q -1.0
  994          P     32      C      P    994 1.16620000  30.970000   ; qtot -29.141900
  995         OQ     32      C    OP1    995 -0.77600000  16.000000   ; qtot -29.917900
  996         OQ     32      C    OP2    996 -0.77600000  16.000000   ; qtot -30.693900
  997         OR     32      C    O5'    997 -0.49890000  16.000000   ; qtot -31.192800
  998         CI     32      C    C5'    998 0.05580000  12.010000   ; qtot -31.137000
  999         H1     32      C    H5'    999 0.06790000   1.008000   ; qtot -31.069100
 1000         H1     32      C   H5''   1000 0.06790000   1.008000   ; qtot -31.001200
 1001         CT     32      C    C4'   1001 0.10650000  12.010000   ; qtot -30.894700
 1002         H1     32      C    H4'   1002 0.11740000   1.008000   ; qtot -30.777300
 1003         OS     32      C    O4'   1003 -0.35480000  16.000000   ; qtot -31.132100
 1004         CT     32      C    C1'   1004 0.00660000  12.010000   ; qtot -31.125500
 1005         H2     32      C    H1'   1005 0.20290000   1.008000   ; qtot -30.922600
 1006         N*     32      C     N1   1006 -0.04840000  14.010000   ; qtot -30.971000
 1007         C4     32      C     C6   1007 0.00530000  12.010000   ; qtot -30.965700
 1008         H4     32      C     H6   1008 0.19580000   1.008000   ; qtot -30.769900
 1009         C4     32      C     C5   1009 -0.52150000  12.010000   ; qtot -31.291400
 1010         HA     32      C     H5   1010 0.19280000   1.008000   ; qtot -31.098600
 1011         CA     32      C     C4   1011 0.81850000  12.010000   ; qtot -30.280100
 1012         N2     32      C     N4   1012 -0.87160000  14.010000   ; qtot -31.151700
 1013          H     32      C    H41   1013 0.38270000   1.008000   ; qtot -30.769000
 1014          H     32      C    H42   1014 0.38270000   1.008000   ; qtot -30.386300
 1015         NC     32      C     N3   1015 -0.75840000  14.010000   ; qtot -31.144700
 1016          C     32      C     C2   1016 0.75380000  12.010000   ; qtot -30.390900
 1017          O     32      C     O2   1017 -0.62520000  16.000000   ; qtot -31.016100
 1018         CT     32      C    C3'   1018 0.20220000  12.010000   ; qtot -30.813900
 1019         H1     32      C    H3'   1019 0.06150000   1.008000   ; qtot -30.752400
 1020         CT     32      C    C2'   1020 0.06700000  12.010000   ; qtot -30.685400
 1021         H1     32      C    H2'   1021 0.09720000   1.008000   ; qtot -30.588200
 1022         OH     32      C    O2'   1022 -0.61390000  16.000000   ; qtot -31.202100
 1023         HO     32      C   HO2'   1023 0.41860000   1.008000   ; qtot -30.783500
 1024         OR     32      C    O3'   1024 -0.52460000  16.000000   ; qtot -31.308100
; residue   33 C rtp C q -1.0
 1025          P     33      C      P   1025 1.16620000  30.970000   ; qtot -30.141900
 1026         OQ     33      C    OP1   1026 -0.77600000  16.000000   ; qtot -30.917900
 1027         OQ     33      C    OP2   1027 -0.77600000  16.000000   ; qtot -31.693900
 1028         OR     33      C    O5'   1028 -0.49890000  16.000000   ; qtot -32.192800
 1029         CI     33      C    C5'   1029 0.05580000  12.010000   ; qtot -32.137000
 1030         H1     33      C    H5'   1030 0.06790000   1.008000   ; qtot -32.069100
 1031         H1     33      C   H5''   1031 0.06790000   1.008000   ; qtot -32.001200
 1032         CT     33      C    C4'   1032 0.10650000  12.010000   ; qtot -31.894700
 1033         H1     33      C    H4'   1033 0.11740000   1.008000   ; qtot -31.777300
 1034         OS     33      C    O4'   1034 -0.35480000  16.000000   ; qtot -32.132100
 1035         CT     33      C    C1'   1035 0.00660000  12.010000   ; qtot -32.125500
 1036         H2     33      C    H1'   1036 0.20290000   1.008000   ; qtot -31.922600
 1037         N*     33      C     N1   1037 -0.04840000  14.010000   ; qtot -31.971000
 1038         C4     33      C     C6   1038 0.00530000  12.010000   ; qtot -31.965700
 1039         H4     33      C     H6   1039 0.19580000   1.008000   ; qtot -31.769900
 1040         C4     33      C     C5   1040 -0.52150000  12.010000   ; qtot -32.291400
 1041         HA     33      C     H5   1041 0.19280000   1.008000   ; qtot -32.098600
 1042         CA     33      C     C4   1042 0.81850000  12.010000   ; qtot -31.280100
 1043         N2     33      C     N4   1043 -0.87160000  14.010000   ; qtot -32.151700
 1044          H     33      C    H41   1044 0.38270000   1.008000   ; qtot -31.769000
 1045          H     33      C    H42   1045 0.38270000   1.008000   ; qtot -31.386300
 1046         NC     33      C     N3   1046 -0.75840000  14.010000   ; qtot -32.144700
 1047          C     33      C     C2   1047 0.75380000  12.010000   ; qtot -31.390900
 1048          O     33      C     O2   1048 -0.62520000  16.000000   ; qtot -32.016100
 1049         CT     33      C    C3'   1049 0.20220000  12.010000   ; qtot -31.813900
 1050         H1     33      C    H3'   1050 0.06150000   1.008000   ; qtot -31.752400
 1051         CT     33      C    C2'   1051 0.06700000  12.010000   ; qtot -31.685400
 1052         H1     33      C    H2'   1052 0.09720000   1.008000   ; qtot -31.588200
 1053         OH     33      C    O2'   1053 -0.61390000  16.000000   ; qtot -32.202100
 1054         HO     33      C   HO2'   1054 0.41860000   1.008000   ; qtot -31.783500
 1055         OR     33      C    O3'   1055 -0.52460000  16.000000   ; qtot -32.308100
; residue   34 C rtp C q -1.0
 1056          P     34      C      P   1056 1.16620000  30.970000   ; qtot -31.141900
 1057         OQ     34      C    OP1   1057 -0.77600000  16.000000   ; qtot -31.917900
 1058         OQ     34      C    OP2   1058 -0.77600000  16.000000   ; qtot -32.693900
 1059         OR     34      C    O5'   1059 -0.49890000  16.000000   ; qtot -33.192800
 1060         CI     34      C    C5'   1060 0.05580000  12.010000   ; qtot -33.137000
 1061         H1     34      C    H5'   1061 0.06790000   1.008000   ; qtot -33.069100
 1062         H1     34      C   H5''   1062 0.06790000   1.008000   ; qtot -33.001200
 1063         CT     34      C    C4'   1063 0.10650000  12.010000   ; qtot -32.894700
 1064         H1     34      C    H4'   1064 0.11740000   1.008000   ; qtot -32.777300
 1065         OS     34      C    O4'   1065 -0.35480000  16.000000   ; qtot -33.132100
 1066         CT     34      C    C1'   1066 0.00660000  12.010000   ; qtot -33.125500
 1067         H2     34      C    H1'   1067 0.20290000   1.008000   ; qtot -32.922600
 1068         N*     34      C     N1   1068 -0.04840000  14.010000   ; qtot -32.971000
 1069         C4     34      C     C6   1069 0.00530000  12.010000   ; qtot -32.965700
 1070         H4     34      C     H6   1070 0.19580000   1.008000   ; qtot -32.769900
 1071         C4     34      C     C5   1071 -0.52150000  12.010000   ; qtot -33.291400
 1072         HA     34      C     H5   1072 0.19280000   1.008000   ; qtot -33.098600
 1073         CA     34      C     C4   1073 0.81850000  12.010000   ; qtot -32.280100
 1074         N2     34      C     N4   1074 -0.87160000  14.010000   ; qtot -33.151700
 1075          H     34      C    H41   1075 0.38270000   1.008000   ; qtot -32.769000
 1076          H     34      C    H42   1076 0.38270000   1.008000   ; qtot -32.386300
 1077         NC     34      C     N3   1077 -0.75840000  14.010000   ; qtot -33.144700
 1078          C     34      C     C2   1078 0.75380000  12.010000   ; qtot -32.390900
 1079          O     34      C     O2   1079 -0.62520000  16.000000   ; qtot -33.016100
 1080         CT     34      C    C3'   1080 0.20220000  12.010000   ; qtot -32.813900
 1081         H1     34      C    H3'   1081 0.06150000   1.008000   ; qtot -32.752400
 1082         CT     34      C    C2'   1082 0.06700000  12.010000   ; qtot -32.685400
 1083         H1     34      C    H2'   1083 0.09720000   1.008000   ; qtot -32.588200
 1084         OH     34      C    O2'   1084 -0.61390000  16.000000   ; qtot -33.202100
 1085         HO     34      C   HO2'   1085 0.41860000   1.008000   ; qtot -32.783500
 1086         OR     34      C    O3'   1086 -0.52460000  16.000000   ; qtot -33.308100
; residue   35 G rtp G q -1.0
 1087          P     35      G      P   1087 1.16620000  30.970000   ; qtot -32.141900
 1088         OQ     35      G    OP1   1088 -0.77600000  16.000000   ; qtot -32.917900
 1089         OQ     35      G    OP2   1089 -0.77600000  16.000000   ; qtot -33.693900
 1090         OR     35      G    O5'   1090 -0.49890000  16.000000   ; qtot -34.192800
 1091         CI     35      G    C5'   1091 0.05580000  12.010000   ; qtot -34.137000
 1092         H1     35      G    H5'   1092 0.06790000   1.008000   ; qtot -34.069100
 1093         H1     35      G   H5''   1093 0.06790000   1.008000   ; qtot -34.001200
 1094         CT     35      G    C4'   1094 0.10650000  12.010000   ; qtot -33.894700
 1095         H1     35      G    H4'   1095 0.11740000   1.008000   ; qtot -33.777300
 1096         OS     35      G    O4'   1096 -0.35480000  16.000000   ; qtot -34.132100
 1097         CT     35      G    C1'   1097 0.01910000  12.010000   ; qtot -34.113000
 1098         H2     35      G    H1'   1098 0.20060000   1.008000   ; qtot -33.912400
 1099         NR     35      G     N9   1099 0.04920000  14.010000   ; qtot -33.863200
 1100         CP     35      G     C8   1100 0.13740000  12.010000   ; qtot -33.725800
 1101         H5     35      G     H8   1101 0.16400000   1.008000   ; qtot -33.561800
 1102         NB     35      G     N7   1102 -0.57090000  14.010000   ; qtot -34.132700
 1103         CB     35      G     C5   1103 0.17440000  12.010000   ; qtot -33.958300
 1104          C     35      G     C6   1104 0.47700000  12.010000   ; qtot -33.481300
 1105          O     35      G     O6   1105 -0.55970000  16.000000   ; qtot -34.041000
 1106         NA     35      G     N1   1106 -0.56060000  14.010000   ; qtot -34.601600
 1107          H     35      G     H1   1107 0.42430000   1.008000   ; qtot -34.177300
 1108         CA     35      G     C2   1108 0.76570000  12.010000   ; qtot -33.411600
 1109         N2     35      G     N2   1109 -1.01580000  14.010000   ; qtot -34.427400
 1110          H     35      G    H21   1110 0.46070000   1.008000   ; qtot -33.966700
 1111          H     35      G    H22   1111 0.46070000   1.008000   ; qtot -33.506000
 1112         NC     35      G     N3   1112 -0.63230000  14.010000   ; qtot -34.138300
 1113         CB     35      G     C4   1113 0.12220000  12.010000   ; qtot -34.016100
 1114         CT     35      G    C3'   1114 0.20220000  12.010000   ; qtot -33.813900
 1115         H1     35      G    H3'   1115 0.06150000   1.008000   ; qtot -33.752400
 1116         CT     35      G    C2'   1116 0.06700000  12.010000   ; qtot -33.685400
 1117         H1     35      G    H2'   1117 0.09720000   1.008000   ; qtot -33.588200
 1118         OH     35      G    O2'   1118 -0.61390000  16.000000   ; qtot -34.202100
 1119         HO     35      G   HO2'   1119 0.41860000   1.008000   ; qtot -33.783500
 1120         OR     35      G    O3'   1120 -0.52460000  16.000000   ; qtot -34.308100
; residue   36 U rtp U q -1.0
 1121          P     36      U      P   1121 1.16620000  30.970000   ; qtot -33.141900
 1122         OQ     36      U    OP1   1122 -0.77600000  16.000000   ; qtot -33.917900
 1123         OQ     36      U    OP2   1123 -0.77600000  16.000000   ; qtot -34.693900
 1124         OR     36      U    O5'   1124 -0.49890000  16.000000   ; qtot -35.192800
 1125         CI     36      U    C5'   1125 0.05580000  12.010000   ; qtot -35.137000
 1126         H1     36      U    H5'   1126 0.06790000   1.008000   ; qtot -35.069100
 1127         H1     36      U   H5''   1127 0.06790000   1.008000   ; qtot -35.001200
 1128         CT     36      U    C4'   1128 0.10650000  12.010000   ; qtot -34.894700
 1129         H1     36      U    H4'   1129 0.11740000   1.008000   ; qtot -34.777300
 1130         OS     36      U    O4'   1130 -0.35480000  16.000000   ; qtot -35.132100
 1131         CT     36      U    C1'   1131 0.06740000  12.010000   ; qtot -35.064700
 1132         H2     36      U    H1'   1132 0.18240000   1.008000   ; qtot -34.882300
 1133         N*     36      U     N1   1133 0.04180000  14.010000   ; qtot -34.840500
 1134         CS     36      U     C6   1134 -0.11260000  12.010000   ; qtot -34.953100
 1135         H4     36      U     H6   1135 0.21880000   1.008000   ; qtot -34.734300
 1136         CS     36      U     C5   1136 -0.36350000  12.010000   ; qtot -35.097800
 1137         HA     36      U     H5   1137 0.18110000   1.008000   ; qtot -34.916700
 1138          C     36      U     C4   1138 0.59520000  12.010000   ; qtot -34.321500
 1139          O     36      U     O4   1139 -0.57610000  16.000000   ; qtot -34.897600
 1140         NA     36      U     N3   1140 -0.39130000  14.010000   ; qtot -35.288900
 1141          H     36      U     H3   1141 0.35180000   1.008000   ; qtot -34.937100
 1142          C     36      U     C2   1142 0.46870000  12.010000   ; qtot -34.468400
 1143          O     36      U     O2   1143 -0.54770000  16.000000   ; qtot -35.016100
 1144         CT     36      U    C3'   1144 0.20220000  12.010000   ; qtot -34.813900
 1145         H1     36      U    H3'   1145 0.06150000   1.008000   ; qtot -34.752400
 1146         CT     36      U    C2'   1146 0.06700000  12.010000   ; qtot -34.685400
 1147         H1     36      U    H2'   1147 0.09720000   1.008000   ; qtot -34.588200
 1148         OH     36      U    O2'   1148 -0.61390000  16.000000   ; qtot -35.202100
 1149         HO     36      U   HO2'   1149 0.41860000   1.008000   ; qtot -34.783500
 1150         OR     36      U    O3'   1150 -0.52460000  16.000000   ; qtot -35.308100
; residue   37 C rtp C q -1.0
 1151          P     37      C      P   1151 1.16620000  30.970000   ; qtot -34.141900
 1152         OQ     37      C    OP1   1152 -0.77600000  16.000000   ; qtot -34.917900
 1153         OQ     37      C    OP2   1153 -0.77600000  16.000000   ; qtot -35.693900
 1154         OR     37      C    O5'   1154 -0.49890000  16.000000   ; qtot -36.192800
 1155         CI     37      C    C5'   1155 0.05580000  12.010000   ; qtot -36.137000
 1156         H1     37      C    H5'   1156 0.06790000   1.008000   ; qtot -36.069100
 1157         H1     37      C   H5''   1157 0.06790000   1.008000   ; qtot -36.001200
 1158         CT     37      C    C4'   1158 0.10650000  12.010000   ; qtot -35.894700
 1159         H1     37      C    H4'   1159 0.11740000   1.008000   ; qtot -35.777300
 1160         OS     37      C    O4'   1160 -0.35480000  16.000000   ; qtot -36.132100
 1161         CT     37      C    C1'   1161 0.00660000  12.010000   ; qtot -36.125500
 1162         H2     37      C    H1'   1162 0.20290000   1.008000   ; qtot -35.922600
 1163         N*     37      C     N1   1163 -0.04840000  14.010000   ; qtot -35.971000
 1164         C4     37      C     C6   1164 0.00530000  12.010000   ; qtot -35.965700
 1165         H4     37      C     H6   1165 0.19580000   1.008000   ; qtot -35.769900
 1166         C4     37      C     C5   1166 -0.52150000  12.010000   ; qtot -36.291400
 1167         HA     37      C     H5   1167 0.19280000   1.008000   ; qtot -36.098600
 1168         CA     37      C     C4   1168 0.81850000  12.010000   ; qtot -35.280100
 1169         N2     37      C     N4   1169 -0.87160000  14.010000   ; qtot -36.151700
 1170          H     37      C    H41   1170 0.38270000   1.008000   ; qtot -35.769000
 1171          H     37      C    H42   1171 0.38270000   1.008000   ; qtot -35.386300
 1172         NC     37      C     N3   1172 -0.75840000  14.010000   ; qtot -36.144700
 1173          C     37      C     C2   1173 0.75380000  12.010000   ; qtot -35.390900
 1174          O     37      C     O2   1174 -0.62520000  16.000000   ; qtot -36.016100
 1175         CT     37      C    C3'   1175 0.20220000  12.010000   ; qtot -35.813900
 1176         H1     37      C    H3'   1176 0.06150000   1.008000   ; qtot -35.752400
 1177         CT     37      C    C2'   1177 0.06700000  12.010000   ; qtot -35.685400
 1178         H1     37      C    H2'   1178 0.09720000   1.008000   ; qtot -35.588200
 1179         OH     37      C    O2'   1179 -0.61390000  16.000000   ; qtot -36.202100
 1180         HO     37      C   HO2'   1180 0.41860000   1.008000   ; qtot -35.783500
 1181         OR     37      C    O3'   1181 -0.52460000  16.000000   ; qtot -36.308100
; residue   38 U rtp U q -1.0
 1182          P     38      U      P   1182 1.16620000  30.970000   ; qtot -35.141900
 1183         OQ     38      U    OP1   1183 -0.77600000  16.000000   ; qtot -35.917900
 1184         OQ     38      U    OP2   1184 -0.77600000  16.000000   ; qtot -36.693900
 1185         OR     38      U    O5'   1185 -0.49890000  16.000000   ; qtot -37.192800
 1186         CI     38      U    C5'   1186 0.05580000  12.010000   ; qtot -37.137000
 1187         H1     38      U    H5'   1187 0.06790000   1.008000   ; qtot -37.069100
 1188         H1     38      U   H5''   1188 0.06790000   1.008000   ; qtot -37.001200
 1189         CT     38      U    C4'   1189 0.10650000  12.010000   ; qtot -36.894700
 1190         H1     38      U    H4'   1190 0.11740000   1.008000   ; qtot -36.777300
 1191         OS     38      U    O4'   1191 -0.35480000  16.000000   ; qtot -37.132100
 1192         CT     38      U    C1'   1192 0.06740000  12.010000   ; qtot -37.064700
 1193         H2     38      U    H1'   1193 0.18240000   1.008000   ; qtot -36.882300
 1194         N*     38      U     N1   1194 0.04180000  14.010000   ; qtot -36.840500
 1195         CS     38      U     C6   1195 -0.11260000  12.010000   ; qtot -36.953100
 1196         H4     38      U     H6   1196 0.21880000   1.008000   ; qtot -36.734300
 1197         CS     38      U     C5   1197 -0.36350000  12.010000   ; qtot -37.097800
 1198         HA     38      U     H5   1198 0.18110000   1.008000   ; qtot -36.916700
 1199          C     38      U     C4   1199 0.59520000  12.010000   ; qtot -36.321500
 1200          O     38      U     O4   1200 -0.57610000  16.000000   ; qtot -36.897600
 1201         NA     38      U     N3   1201 -0.39130000  14.010000   ; qtot -37.288900
 1202          H     38      U     H3   1202 0.35180000   1.008000   ; qtot -36.937100
 1203          C     38      U     C2   1203 0.46870000  12.010000   ; qtot -36.468400
 1204          O     38      U     O2   1204 -0.54770000  16.000000   ; qtot -37.016100
 1205         CT     38      U    C3'   1205 0.20220000  12.010000   ; qtot -36.813900
 1206         H1     38      U    H3'   1206 0.06150000   1.008000   ; qtot -36.752400
 1207         CT     38      U    C2'   1207 0.06700000  12.010000   ; qtot -36.685400
 1208         H1     38      U    H2'   1208 0.09720000   1.008000   ; qtot -36.588200
 1209         OH     38      U    O2'   1209 -0.61390000  16.000000   ; qtot -37.202100
 1210         HO     38      U   HO2'   1210 0.41860000   1.008000   ; qtot -36.783500
 1211         OR     38      U    O3'   1211 -0.52460000  16.000000   ; qtot -37.308100
; residue   39 U rtp U q -1.0
 1212          P     39      U      P   1212 1.16620000  30.970000   ; qtot -36.141900
 1213         OQ     39      U    OP1   1213 -0.77600000  16.000000   ; qtot -36.917900
 1214         OQ     39      U    OP2   1214 -0.77600000  16.000000   ; qtot -37.693900
 1215         OR     39      U    O5'   1215 -0.49890000  16.000000   ; qtot -38.192800
 1216         CI     39      U    C5'   1216 0.05580000  12.010000   ; qtot -38.137000
 1217         H1     39      U    H5'   1217 0.06790000   1.008000   ; qtot -38.069100
 1218         H1     39      U   H5''   1218 0.06790000   1.008000   ; qtot -38.001200
 1219         CT     39      U    C4'   1219 0.10650000  12.010000   ; qtot -37.894700
 1220         H1     39      U    H4'   1220 0.11740000   1.008000   ; qtot -37.777300
 1221         OS     39      U    O4'   1221 -0.35480000  16.000000   ; qtot -38.132100
 1222         CT     39      U    C1'   1222 0.06740000  12.010000   ; qtot -38.064700
 1223         H2     39      U    H1'   1223 0.18240000   1.008000   ; qtot -37.882300
 1224         N*     39      U     N1   1224 0.04180000  14.010000   ; qtot -37.840500
 1225         CS     39      U     C6   1225 -0.11260000  12.010000   ; qtot -37.953100
 1226         H4     39      U     H6   1226 0.21880000   1.008000   ; qtot -37.734300
 1227         CS     39      U     C5   1227 -0.36350000  12.010000   ; qtot -38.097800
 1228         HA     39      U     H5   1228 0.18110000   1.008000   ; qtot -37.916700
 1229          C     39      U     C4   1229 0.59520000  12.010000   ; qtot -37.321500
 1230          O     39      U     O4   1230 -0.57610000  16.000000   ; qtot -37.897600
 1231         NA     39      U     N3   1231 -0.39130000  14.010000   ; qtot -38.288900
 1232          H     39      U     H3   1232 0.35180000   1.008000   ; qtot -37.937100
 1233          C     39      U     C2   1233 0.46870000  12.010000   ; qtot -37.468400
 1234          O     39      U     O2   1234 -0.54770000  16.000000   ; qtot -38.016100
 1235         CT     39      U    C3'   1235 0.20220000  12.010000   ; qtot -37.813900
 1236         H1     39      U    H3'   1236 0.06150000   1.008000   ; qtot -37.752400
 1237         CT     39      U    C2'   1237 0.06700000  12.010000   ; qtot -37.685400
 1238         H1     39      U    H2'   1238 0.09720000   1.008000   ; qtot -37.588200
 1239         OH     39      U    O2'   1239 -0.61390000  16.000000   ; qtot -38.202100
 1240         HO     39      U   HO2'   1240 0.41860000   1.008000   ; qtot -37.783500
 1241         OR     39      U    O3'   1241 -0.52460000  16.000000   ; qtot -38.308100
; residue   40 A rtp A q -1.0
 1242          P     40      A      P   1242 1.16620000  30.970000   ; qtot -37.141900
 1243         OQ     40      A    OP1   1243 -0.77600000  16.000000   ; qtot -37.917900
 1244         OQ     40      A    OP2   1244 -0.77600000  16.000000   ; qtot -38.693900
 1245         OR     40      A    O5'   1245 -0.49890000  16.000000   ; qtot -39.192800
 1246         CI     40      A    C5'   1246 0.05580000  12.010000   ; qtot -39.137000
 1247         H1     40      A    H5'   1247 0.06790000   1.008000   ; qtot -39.069100
 1248         H1     40      A   H5''   1248 0.06790000   1.008000   ; qtot -39.001200
 1249         CT     40      A    C4'   1249 0.10650000  12.010000   ; qtot -38.894700
 1250         H1     40      A    H4'   1250 0.11740000   1.008000   ; qtot -38.777300
 1251         OS     40      A    O4'   1251 -0.35480000  16.000000   ; qtot -39.132100
 1252         CT     40      A    C1'   1252 0.03940000  12.010000   ; qtot -39.092700
 1253         H2     40      A    H1'   1253 0.20070000   1.008000   ; qtot -38.892000
 1254         NR     40      A     N9   1254 -0.02510000  14.010000   ; qtot -38.917100
 1255         C5     40      A     C8   1255 0.20060000  12.010000   ; qtot -38.716500
 1256         H5     40      A     H8   1256 0.15530000   1.008000   ; qtot -38.561200
 1257         NB     40      A     N7   1257 -0.60730000  14.010000   ; qtot -39.168500
 1258         CE     40      A     C5   1258 0.05150000  12.010000   ; qtot -39.117000
 1259         CF     40      A     C6   1259 0.70090000  12.010000   ; qtot -38.416100
 1260         N2     40      A     N6   1260 -1.00880000  14.010000   ; qtot -39.424900
 1261          H     40      A    H61   1261 0.47380000   1.008000   ; qtot -38.951100
 1262          H     40      A    H62   1262 0.47380000   1.008000   ; qtot -38.477300
 1263         ND     40      A     N1   1263 -0.79690000  14.010000   ; qtot -39.274200
 1264         CQ     40      A     C2   1264 0.58750000  12.010000   ; qtot -38.686700
 1265         H5     40      A     H2   1265 0.06500000   1.008000   ; qtot -38.621700
 1266         ND     40      A     N3   1266 -0.69970000  14.010000   ; qtot -39.321400
 1267         CE     40      A     C4   1267 0.30530000  12.010000   ; qtot -39.016100
 1268         CT     40      A    C3'   1268 0.20220000  12.010000   ; qtot -38.813900
 1269         H1     40      A    H3'   1269 0.06150000   1.008000   ; qtot -38.752400
 1270         CT     40      A    C2'   1270 0.06700000  12.010000   ; qtot -38.685400
 1271         H1     40      A    H2'   1271 0.09720000   1.008000   ; qtot -38.588200
 1272         OH     40      A    O2'   1272 -0.61390000  16.000000   ; qtot -39.202100
 1273         HO     40      A   HO2'   1273 0.41860000   1.008000   ; qtot -38.783500
 1274         OR     40      A    O3'   1274 -0.52460000  16.000000   ; qtot -39.308100
; residue   41 C rtp C q -1.0
 1275          P     41      C      P   1275 1.16620000  30.970000   ; qtot -38.141900
 1276         OQ     41      C    OP1   1276 -0.77600000  16.000000   ; qtot -38.917900
 1277         OQ     41      C    OP2   1277 -0.77600000  16.000000   ; qtot -39.693900
 1278         OR     41      C    O5'   1278 -0.49890000  16.000000   ; qtot -40.192800
 1279         CI     41      C    C5'   1279 0.05580000  12.010000   ; qtot -40.137000
 1280         H1     41      C    H5'   1280 0.06790000   1.008000   ; qtot -40.069100
 1281         H1     41      C   H5''   1281 0.06790000   1.008000   ; qtot -40.001200
 1282         CT     41      C    C4'   1282 0.10650000  12.010000   ; qtot -39.894700
 1283         H1     41      C    H4'   1283 0.11740000   1.008000   ; qtot -39.777300
 1284         OS     41      C    O4'   1284 -0.35480000  16.000000   ; qtot -40.132100
 1285         CT     41      C    C1'   1285 0.00660000  12.010000   ; qtot -40.125500
 1286         H2     41      C    H1'   1286 0.20290000   1.008000   ; qtot -39.922600
 1287         N*     41      C     N1   1287 -0.04840000  14.010000   ; qtot -39.971000
 1288         C4     41      C     C6   1288 0.00530000  12.010000   ; qtot -39.965700
 1289         H4     41      C     H6   1289 0.19580000   1.008000   ; qtot -39.769900
 1290         C4     41      C     C5   1290 -0.52150000  12.010000   ; qtot -40.291400
 1291         HA     41      C     H5   1291 0.19280000   1.008000   ; qtot -40.098600
 1292         CA     41      C     C4   1292 0.81850000  12.010000   ; qtot -39.280100
 1293         N2     41      C     N4   1293 -0.87160000  14.010000   ; qtot -40.151700
 1294          H     41      C    H41   1294 0.38270000   1.008000   ; qtot -39.769000
 1295          H     41      C    H42   1295 0.38270000   1.008000   ; qtot -39.386300
 1296         NC     41      C     N3   1296 -0.75840000  14.010000   ; qtot -40.144700
 1297          C     41      C     C2   1297 0.75380000  12.010000   ; qtot -39.390900
 1298          O     41      C     O2   1298 -0.62520000  16.000000   ; qtot -40.016100
 1299         CT     41      C    C3'   1299 0.20220000  12.010000   ; qtot -39.813900
 1300         H1     41      C    H3'   1300 0.06150000   1.008000   ; qtot -39.752400
 1301         CT     41      C    C2'   1301 0.06700000  12.010000   ; qtot -39.685400
 1302         H1     41      C    H2'   1302 0.09720000   1.008000   ; qtot -39.588200
 1303         OH     41      C    O2'   1303 -0.61390000  16.000000   ; qtot -40.202100
 1304         HO     41      C   HO2'   1304 0.41860000   1.008000   ; qtot -39.783500
 1305         OR     41      C    O3'   1305 -0.52460000  16.000000   ; qtot -40.308100
; residue   42 A rtp A q -1.0
 1306          P     42      A      P   1306 1.16620000  30.970000   ; qtot -39.141900
 1307         OQ     42      A    OP1   1307 -0.77600000  16.000000   ; qtot -39.917900
 1308         OQ     42      A    OP2   1308 -0.77600000  16.000000   ; qtot -40.693900
 1309         OR     42      A    O5'   1309 -0.49890000  16.000000   ; qtot -41.192800
 1310         CI     42      A    C5'   1310 0.05580000  12.010000   ; qtot -41.137000
 1311         H1     42      A    H5'   1311 0.06790000   1.008000   ; qtot -41.069100
 1312         H1     42      A   H5''   1312 0.06790000   1.008000   ; qtot -41.001200
 1313         CT     42      A    C4'   1313 0.10650000  12.010000   ; qtot -40.894700
 1314         H1     42      A    H4'   1314 0.11740000   1.008000   ; qtot -40.777300
 1315         OS     42      A    O4'   1315 -0.35480000  16.000000   ; qtot -41.132100
 1316         CT     42      A    C1'   1316 0.03940000  12.010000   ; qtot -41.092700
 1317         H2     42      A    H1'   1317 0.20070000   1.008000   ; qtot -40.892000
 1318         NR     42      A     N9   1318 -0.02510000  14.010000   ; qtot -40.917100
 1319         C5     42      A     C8   1319 0.20060000  12.010000   ; qtot -40.716500
 1320         H5     42      A     H8   1320 0.15530000   1.008000   ; qtot -40.561200
 1321         NB     42      A     N7   1321 -0.60730000  14.010000   ; qtot -41.168500
 1322         CE     42      A     C5   1322 0.05150000  12.010000   ; qtot -41.117000
 1323         CF     42      A     C6   1323 0.70090000  12.010000   ; qtot -40.416100
 1324         N2     42      A     N6   1324 -1.00880000  14.010000   ; qtot -41.424900
 1325          H     42      A    H61   1325 0.47380000   1.008000   ; qtot -40.951100
 1326          H     42      A    H62   1326 0.47380000   1.008000   ; qtot -40.477300
 1327         ND     42      A     N1   1327 -0.79690000  14.010000   ; qtot -41.274200
 1328         CQ     42      A     C2   1328 0.58750000  12.010000   ; qtot -40.686700
 1329         H5     42      A     H2   1329 0.06500000   1.008000   ; qtot -40.621700
 1330         ND     42      A     N3   1330 -0.69970000  14.010000   ; qtot -41.321400
 1331         CE     42      A     C4   1331 0.30530000  12.010000   ; qtot -41.016100
 1332         CT     42      A    C3'   1332 0.20220000  12.010000   ; qtot -40.813900
 1333         H1     42      A    H3'   1333 0.06150000   1.008000   ; qtot -40.752400
 1334         CT     42      A    C2'   1334 0.06700000  12.010000   ; qtot -40.685400
 1335         H1     42      A    H2'   1335 0.09720000   1.008000   ; qtot -40.588200
 1336         OH     42      A    O2'   1336 -0.61390000  16.000000   ; qtot -41.202100
 1337         HO     42      A   HO2'   1337 0.41860000   1.008000   ; qtot -40.783500
 1338         OR     42      A    O3'   1338 -0.52460000  16.000000   ; qtot -41.308100
; residue   43 C rtp C q -1.0
 1339          P     43      C      P   1339 1.16620000  30.970000   ; qtot -40.141900
 1340         OQ     43      C    OP1   1340 -0.77600000  16.000000   ; qtot -40.917900
 1341         OQ     43      C    OP2   1341 -0.77600000  16.000000   ; qtot -41.693900
 1342         OR     43      C    O5'   1342 -0.49890000  16.000000   ; qtot -42.192800
 1343         CI     43      C    C5'   1343 0.05580000  12.010000   ; qtot -42.137000
 1344         H1     43      C    H5'   1344 0.06790000   1.008000   ; qtot -42.069100
 1345         H1     43      C   H5''   1345 0.06790000   1.008000   ; qtot -42.001200
 1346         CT     43      C    C4'   1346 0.10650000  12.010000   ; qtot -41.894700
 1347         H1     43      C    H4'   1347 0.11740000   1.008000   ; qtot -41.777300
 1348         OS     43      C    O4'   1348 -0.35480000  16.000000   ; qtot -42.132100
 1349         CT     43      C    C1'   1349 0.00660000  12.010000   ; qtot -42.125500
 1350         H2     43      C    H1'   1350 0.20290000   1.008000   ; qtot -41.922600
 1351         N*     43      C     N1   1351 -0.04840000  14.010000   ; qtot -41.971000
 1352         C4     43      C     C6   1352 0.00530000  12.010000   ; qtot -41.965700
 1353         H4     43      C     H6   1353 0.19580000   1.008000   ; qtot -41.769900
 1354         C4     43      C     C5   1354 -0.52150000  12.010000   ; qtot -42.291400
 1355         HA     43      C     H5   1355 0.19280000   1.008000   ; qtot -42.098600
 1356         CA     43      C     C4   1356 0.81850000  12.010000   ; qtot -41.280100
 1357         N2     43      C     N4   1357 -0.87160000  14.010000   ; qtot -42.151700
 1358          H     43      C    H41   1358 0.38270000   1.008000   ; qtot -41.769000
 1359          H     43      C    H42   1359 0.38270000   1.008000   ; qtot -41.386300
 1360         NC     43      C     N3   1360 -0.75840000  14.010000   ; qtot -42.144700
 1361          C     43      C     C2   1361 0.75380000  12.010000   ; qtot -41.390900
 1362          O     43      C     O2   1362 -0.62520000  16.000000   ; qtot -42.016100
 1363         CT     43      C    C3'   1363 0.20220000  12.010000   ; qtot -41.813900
 1364         H1     43      C    H3'   1364 0.06150000   1.008000   ; qtot -41.752400
 1365         CT     43      C    C2'   1365 0.06700000  12.010000   ; qtot -41.685400
 1366         H1     43      C    H2'   1366 0.09720000   1.008000   ; qtot -41.588200
 1367         OH     43      C    O2'   1367 -0.61390000  16.000000   ; qtot -42.202100
 1368         HO     43      C   HO2'   1368 0.41860000   1.008000   ; qtot -41.783500
 1369         OR     43      C    O3'   1369 -0.52460000  16.000000   ; qtot -42.308100
; residue   44 C rtp C q -1.0
 1370          P     44      C      P   1370 1.16620000  30.970000   ; qtot -41.141900
 1371         OQ     44      C    OP1   1371 -0.77600000  16.000000   ; qtot -41.917900
 1372         OQ     44      C    OP2   1372 -0.77600000  16.000000   ; qtot -42.693900
 1373         OR     44      C    O5'   1373 -0.49890000  16.000000   ; qtot -43.192800
 1374         CI     44      C    C5'   1374 0.05580000  12.010000   ; qtot -43.137000
 1375         H1     44      C    H5'   1375 0.06790000   1.008000   ; qtot -43.069100
 1376         H1     44      C   H5''   1376 0.06790000   1.008000   ; qtot -43.001200
 1377         CT     44      C    C4'   1377 0.10650000  12.010000   ; qtot -42.894700
 1378         H1     44      C    H4'   1378 0.11740000   1.008000   ; qtot -42.777300
 1379         OS     44      C    O4'   1379 -0.35480000  16.000000   ; qtot -43.132100
 1380         CT     44      C    C1'   1380 0.00660000  12.010000   ; qtot -43.125500
 1381         H2     44      C    H1'   1381 0.20290000   1.008000   ; qtot -42.922600
 1382         N*     44      C     N1   1382 -0.04840000  14.010000   ; qtot -42.971000
 1383         C4     44      C     C6   1383 0.00530000  12.010000   ; qtot -42.965700
 1384         H4     44      C     H6   1384 0.19580000   1.008000   ; qtot -42.769900
 1385         C4     44      C     C5   1385 -0.52150000  12.010000   ; qtot -43.291400
 1386         HA     44      C     H5   1386 0.19280000   1.008000   ; qtot -43.098600
 1387         CA     44      C     C4   1387 0.81850000  12.010000   ; qtot -42.280100
 1388         N2     44      C     N4   1388 -0.87160000  14.010000   ; qtot -43.151700
 1389          H     44      C    H41   1389 0.38270000   1.008000   ; qtot -42.769000
 1390          H     44      C    H42   1390 0.38270000   1.008000   ; qtot -42.386300
 1391         NC     44      C     N3   1391 -0.75840000  14.010000   ; qtot -43.144700
 1392          C     44      C     C2   1392 0.75380000  12.010000   ; qtot -42.390900
 1393          O     44      C     O2   1393 -0.62520000  16.000000   ; qtot -43.016100
 1394         CT     44      C    C3'   1394 0.20220000  12.010000   ; qtot -42.813900
 1395         H1     44      C    H3'   1395 0.06150000   1.008000   ; qtot -42.752400
 1396         CT     44      C    C2'   1396 0.06700000  12.010000   ; qtot -42.685400
 1397         H1     44      C    H2'   1397 0.09720000   1.008000   ; qtot -42.588200
 1398         OH     44      C    O2'   1398 -0.61390000  16.000000   ; qtot -43.202100
 1399         HO     44      C   HO2'   1399 0.41860000   1.008000   ; qtot -42.783500
 1400         OR     44      C    O3'   1400 -0.52460000  16.000000   ; qtot -43.308100
; residue   45 G rtp G q -1.0
 1401          P     45      G      P   1401 1.16620000  30.970000   ; qtot -42.141900
 1402         OQ     45      G    OP1   1402 -0.77600000  16.000000   ; qtot -42.917900
 1403         OQ     45      G    OP2   1403 -0.77600000  16.000000   ; qtot -43.693900
 1404         OR     45      G    O5'   1404 -0.49890000  16.000000   ; qtot -44.192800
 1405         CI     45      G    C5'   1405 0.05580000  12.010000   ; qtot -44.137000
 1406         H1     45      G    H5'   1406 0.06790000   1.008000   ; qtot -44.069100
 1407         H1     45      G   H5''   1407 0.06790000   1.008000   ; qtot -44.001200
 1408         CT     45      G    C4'   1408 0.10650000  12.010000   ; qtot -43.894700
 1409         H1     45      G    H4'   1409 0.11740000   1.008000   ; qtot -43.777300
 1410         OS     45      G    O4'   1410 -0.35480000  16.000000   ; qtot -44.132100
 1411         CT     45      G    C1'   1411 0.01910000  12.010000   ; qtot -44.113000
 1412         H2     45      G    H1'   1412 0.20060000   1.008000   ; qtot -43.912400
 1413         NR     45      G     N9   1413 0.04920000  14.010000   ; qtot -43.863200
 1414         CP     45      G     C8   1414 0.13740000  12.010000   ; qtot -43.725800
 1415         H5     45      G     H8   1415 0.16400000   1.008000   ; qtot -43.561800
 1416         NB     45      G     N7   1416 -0.57090000  14.010000   ; qtot -44.132700
 1417         CB     45      G     C5   1417 0.17440000  12.010000   ; qtot -43.958300
 1418          C     45      G     C6   1418 0.47700000  12.010000   ; qtot -43.481300
 1419          O     45      G     O6   1419 -0.55970000  16.000000   ; qtot -44.041000
 1420         NA     45      G     N1   1420 -0.56060000  14.010000   ; qtot -44.601600
 1421          H     45      G     H1   1421 0.42430000   1.008000   ; qtot -44.177300
 1422         CA     45      G     C2   1422 0.76570000  12.010000   ; qtot -43.411600
 1423         N2     45      G     N2   1423 -1.01580000  14.010000   ; qtot -44.427400
 1424          H     45      G    H21   1424 0.46070000   1.008000   ; qtot -43.966700
 1425          H     45      G    H22   1425 0.46070000   1.008000   ; qtot -43.506000
 1426         NC     45      G     N3   1426 -0.63230000  14.010000   ; qtot -44.138300
 1427         CB     45      G     C4   1427 0.12220000  12.010000   ; qtot -44.016100
 1428         CT     45      G    C3'   1428 0.20220000  12.010000   ; qtot -43.813900
 1429         H1     45      G    H3'   1429 0.06150000   1.008000   ; qtot -43.752400
 1430         CT     45      G    C2'   1430 0.06700000  12.010000   ; qtot -43.685400
 1431         H1     45      G    H2'   1431 0.09720000   1.008000   ; qtot -43.588200
 1432         OH     45      G    O2'   1432 -0.61390000  16.000000   ; qtot -44.202100
 1433         HO     45      G   HO2'   1433 0.41860000   1.008000   ; qtot -43.783500
 1434         OR     45      G    O3'   1434 -0.52460000  16.000000   ; qtot -44.308100
; residue   46 U rtp U q -1.0
 1435          P     46      U      P   1435 1.16620000  30.970000   ; qtot -43.141900
 1436         OQ     46      U    OP1   1436 -0.77600000  16.000000   ; qtot -43.917900
 1437         OQ     46      U    OP2   1437 -0.77600000  16.000000   ; qtot -44.693900
 1438         OR     46      U    O5'   1438 -0.49890000  16.000000   ; qtot -45.192800
 1439         CI     46      U    C5'   1439 0.05580000  12.010000   ; qtot -45.137000
 1440         H1     46      U    H5'   1440 0.06790000   1.008000   ; qtot -45.069100
 1441         H1     46      U   H5''   1441 0.06790000   1.008000   ; qtot -45.001200
 1442         CT     46      U    C4'   1442 0.10650000  12.010000   ; qtot -44.894700
 1443         H1     46      U    H4'   1443 0.11740000   1.008000   ; qtot -44.777300
 1444         OS     46      U    O4'   1444 -0.35480000  16.000000   ; qtot -45.132100
 1445         CT     46      U    C1'   1445 0.06740000  12.010000   ; qtot -45.064700
 1446         H2     46      U    H1'   1446 0.18240000   1.008000   ; qtot -44.882300
 1447         N*     46      U     N1   1447 0.04180000  14.010000   ; qtot -44.840500
 1448         CS     46      U     C6   1448 -0.11260000  12.010000   ; qtot -44.953100
 1449         H4     46      U     H6   1449 0.21880000   1.008000   ; qtot -44.734300
 1450         CS     46      U     C5   1450 -0.36350000  12.010000   ; qtot -45.097800
 1451         HA     46      U     H5   1451 0.18110000   1.008000   ; qtot -44.916700
 1452          C     46      U     C4   1452 0.59520000  12.010000   ; qtot -44.321500
 1453          O     46      U     O4   1453 -0.57610000  16.000000   ; qtot -44.897600
 1454         NA     46      U     N3   1454 -0.39130000  14.010000   ; qtot -45.288900
 1455          H     46      U     H3   1455 0.35180000   1.008000   ; qtot -44.937100
 1456          C     46      U     C2   1456 0.46870000  12.010000   ; qtot -44.468400
 1457          O     46      U     O2   1457 -0.54770000  16.000000   ; qtot -45.016100
 1458         CT     46      U    C3'   1458 0.20220000  12.010000   ; qtot -44.813900
 1459         H1     46      U    H3'   1459 0.06150000   1.008000   ; qtot -44.752400
 1460         CT     46      U    C2'   1460 0.06700000  12.010000   ; qtot -44.685400
 1461         H1     46      U    H2'   1461 0.09720000   1.008000   ; qtot -44.588200
 1462         OH     46      U    O2'   1462 -0.61390000  16.000000   ; qtot -45.202100
 1463         HO     46      U   HO2'   1463 0.41860000   1.008000   ; qtot -44.783500
 1464         OR     46      U    O3'   1464 -0.52460000  16.000000   ; qtot -45.308100
; residue   47 G rtp G q -1.0
 1465          P     47      G      P   1465 1.16620000  30.970000   ; qtot -44.141900
 1466         OQ     47      G    OP1   1466 -0.77600000  16.000000   ; qtot -44.917900
 1467         OQ     47      G    OP2   1467 -0.77600000  16.000000   ; qtot -45.693900
 1468         OR     47      G    O5'   1468 -0.49890000  16.000000   ; qtot -46.192800
 1469         CI     47      G    C5'   1469 0.05580000  12.010000   ; qtot -46.137000
 1470         H1     47      G    H5'   1470 0.06790000   1.008000   ; qtot -46.069100
 1471         H1     47      G   H5''   1471 0.06790000   1.008000   ; qtot -46.001200
 1472         CT     47      G    C4'   1472 0.10650000  12.010000   ; qtot -45.894700
 1473         H1     47      G    H4'   1473 0.11740000   1.008000   ; qtot -45.777300
 1474         OS     47      G    O4'   1474 -0.35480000  16.000000   ; qtot -46.132100
 1475         CT     47      G    C1'   1475 0.01910000  12.010000   ; qtot -46.113000
 1476         H2     47      G    H1'   1476 0.20060000   1.008000   ; qtot -45.912400
 1477         NR     47      G     N9   1477 0.04920000  14.010000   ; qtot -45.863200
 1478         CP     47      G     C8   1478 0.13740000  12.010000   ; qtot -45.725800
 1479         H5     47      G     H8   1479 0.16400000   1.008000   ; qtot -45.561800
 1480         NB     47      G     N7   1480 -0.57090000  14.010000   ; qtot -46.132700
 1481         CB     47      G     C5   1481 0.17440000  12.010000   ; qtot -45.958300
 1482          C     47      G     C6   1482 0.47700000  12.010000   ; qtot -45.481300
 1483          O     47      G     O6   1483 -0.55970000  16.000000   ; qtot -46.041000
 1484         NA     47      G     N1   1484 -0.56060000  14.010000   ; qtot -46.601600
 1485          H     47      G     H1   1485 0.42430000   1.008000   ; qtot -46.177300
 1486         CA     47      G     C2   1486 0.76570000  12.010000   ; qtot -45.411600
 1487         N2     47      G     N2   1487 -1.01580000  14.010000   ; qtot -46.427400
 1488          H     47      G    H21   1488 0.46070000   1.008000   ; qtot -45.966700
 1489          H     47      G    H22   1489 0.46070000   1.008000   ; qtot -45.506000
 1490         NC     47      G     N3   1490 -0.63230000  14.010000   ; qtot -46.138300
 1491         CB     47      G     C4   1491 0.12220000  12.010000   ; qtot -46.016100
 1492         CT     47      G    C3'   1492 0.20220000  12.010000   ; qtot -45.813900
 1493         H1     47      G    H3'   1493 0.06150000   1.008000   ; qtot -45.752400
 1494         CT     47      G    C2'   1494 0.06700000  12.010000   ; qtot -45.685400
 1495         H1     47      G    H2'   1495 0.09720000   1.008000   ; qtot -45.588200
 1496         OH     47      G    O2'   1496 -0.61390000  16.000000   ; qtot -46.202100
 1497         HO     47      G   HO2'   1497 0.41860000   1.008000   ; qtot -45.783500
 1498         OR     47      G    O3'   1498 -0.52460000  16.000000   ; qtot -46.308100
; residue   48 C rtp C q -1.0
 1499          P     48      C      P   1499 1.16620000  30.970000   ; qtot -45.141900
 1500         OQ     48      C    OP1   1500 -0.77600000  16.000000   ; qtot -45.917900
 1501         OQ     48      C    OP2   1501 -0.77600000  16.000000   ; qtot -46.693900
 1502         OR     48      C    O5'   1502 -0.49890000  16.000000   ; qtot -47.192800
 1503         CI     48      C    C5'   1503 0.05580000  12.010000   ; qtot -47.137000
 1504         H1     48      C    H5'   1504 0.06790000   1.008000   ; qtot -47.069100
 1505         H1     48      C   H5''   1505 0.06790000   1.008000   ; qtot -47.001200
 1506         CT     48      C    C4'   1506 0.10650000  12.010000   ; qtot -46.894700
 1507         H1     48      C    H4'   1507 0.11740000   1.008000   ; qtot -46.777300
 1508         OS     48      C    O4'   1508 -0.35480000  16.000000   ; qtot -47.132100
 1509         CT     48      C    C1'   1509 0.00660000  12.010000   ; qtot -47.125500
 1510         H2     48      C    H1'   1510 0.20290000   1.008000   ; qtot -46.922600
 1511         N*     48      C     N1   1511 -0.04840000  14.010000   ; qtot -46.971000
 1512         C4     48      C     C6   1512 0.00530000  12.010000   ; qtot -46.965700
 1513         H4     48      C     H6   1513 0.19580000   1.008000   ; qtot -46.769900
 1514         C4     48      C     C5   1514 -0.52150000  12.010000   ; qtot -47.291400
 1515         HA     48      C     H5   1515 0.19280000   1.008000   ; qtot -47.098600
 1516         CA     48      C     C4   1516 0.81850000  12.010000   ; qtot -46.280100
 1517         N2     48      C     N4   1517 -0.87160000  14.010000   ; qtot -47.151700
 1518          H     48      C    H41   1518 0.38270000   1.008000   ; qtot -46.769000
 1519          H     48      C    H42   1519 0.38270000   1.008000   ; qtot -46.386300
 1520         NC     48      C     N3   1520 -0.75840000  14.010000   ; qtot -47.144700
 1521          C     48      C     C2   1521 0.75380000  12.010000   ; qtot -46.390900
 1522          O     48      C     O2   1522 -0.62520000  16.000000   ; qtot -47.016100
 1523         CT     48      C    C3'   1523 0.20220000  12.010000   ; qtot -46.813900
 1524         H1     48      C    H3'   1524 0.06150000   1.008000   ; qtot -46.752400
 1525         CT     48      C    C2'   1525 0.06700000  12.010000   ; qtot -46.685400
 1526         H1     48      C    H2'   1526 0.09720000   1.008000   ; qtot -46.588200
 1527         OH     48      C    O2'   1527 -0.61390000  16.000000   ; qtot -47.202100
 1528         HO     48      C   HO2'   1528 0.41860000   1.008000   ; qtot -46.783500
 1529         OR     48      C    O3'   1529 -0.52460000  16.000000   ; qtot -47.308100
; residue   49 G rtp G q -1.0
 1530          P     49      G      P   1530 1.16620000  30.970000   ; qtot -46.141900
 1531         OQ     49      G    OP1   1531 -0.77600000  16.000000   ; qtot -46.917900
 1532         OQ     49      G    OP2   1532 -0.77600000  16.000000   ; qtot -47.693900
 1533         OR     49      G    O5'   1533 -0.49890000  16.000000   ; qtot -48.192800
 1534         CI     49      G    C5'   1534 0.05580000  12.010000   ; qtot -48.137000
 1535         H1     49      G    H5'   1535 0.06790000   1.008000   ; qtot -48.069100
 1536         H1     49      G   H5''   1536 0.06790000   1.008000   ; qtot -48.001200
 1537         CT     49      G    C4'   1537 0.10650000  12.010000   ; qtot -47.894700
 1538         H1     49      G    H4'   1538 0.11740000   1.008000   ; qtot -47.777300
 1539         OS     49      G    O4'   1539 -0.35480000  16.000000   ; qtot -48.132100
 1540         CT     49      G    C1'   1540 0.01910000  12.010000   ; qtot -48.113000
 1541         H2     49      G    H1'   1541 0.20060000   1.008000   ; qtot -47.912400
 1542         NR     49      G     N9   1542 0.04920000  14.010000   ; qtot -47.863200
 1543         CP     49      G     C8   1543 0.13740000  12.010000   ; qtot -47.725800
 1544         H5     49      G     H8   1544 0.16400000   1.008000   ; qtot -47.561800
 1545         NB     49      G     N7   1545 -0.57090000  14.010000   ; qtot -48.132700
 1546         CB     49      G     C5   1546 0.17440000  12.010000   ; qtot -47.958300
 1547          C     49      G     C6   1547 0.47700000  12.010000   ; qtot -47.481300
 1548          O     49      G     O6   1548 -0.55970000  16.000000   ; qtot -48.041000
 1549         NA     49      G     N1   1549 -0.56060000  14.010000   ; qtot -48.601600
 1550          H     49      G     H1   1550 0.42430000   1.008000   ; qtot -48.177300
 1551         CA     49      G     C2   1551 0.76570000  12.010000   ; qtot -47.411600
 1552         N2     49      G     N2   1552 -1.01580000  14.010000   ; qtot -48.427400
 1553          H     49      G    H21   1553 0.46070000   1.008000   ; qtot -47.966700
 1554          H     49      G    H22   1554 0.46070000   1.008000   ; qtot -47.506000
 1555         NC     49      G     N3   1555 -0.63230000  14.010000   ; qtot -48.138300
 1556         CB     49      G     C4   1556 0.12220000  12.010000   ; qtot -48.016100
 1557         CT     49      G    C3'   1557 0.20220000  12.010000   ; qtot -47.813900
 1558         H1     49      G    H3'   1558 0.06150000   1.008000   ; qtot -47.752400
 1559         CT     49      G    C2'   1559 0.06700000  12.010000   ; qtot -47.685400
 1560         H1     49      G    H2'   1560 0.09720000   1.008000   ; qtot -47.588200
 1561         OH     49      G    O2'   1561 -0.61390000  16.000000   ; qtot -48.202100
 1562         HO     49      G   HO2'   1562 0.41860000   1.008000   ; qtot -47.783500
 1563         OR     49      G    O3'   1563 -0.52460000  16.000000   ; qtot -48.308100
; residue   50 G rtp G q -1.0
 1564          P     50      G      P   1564 1.16620000  30.970000   ; qtot -47.141900
 1565         OQ     50      G    OP1   1565 -0.77600000  16.000000   ; qtot -47.917900
 1566         OQ     50      G    OP2   1566 -0.77600000  16.000000   ; qtot -48.693900
 1567         OR     50      G    O5'   1567 -0.49890000  16.000000   ; qtot -49.192800
 1568         CI     50      G    C5'   1568 0.05580000  12.010000   ; qtot -49.137000
 1569         H1     50      G    H5'   1569 0.06790000   1.008000   ; qtot -49.069100
 1570         H1     50      G   H5''   1570 0.06790000   1.008000   ; qtot -49.001200
 1571         CT     50      G    C4'   1571 0.10650000  12.010000   ; qtot -48.894700
 1572         H1     50      G    H4'   1572 0.11740000   1.008000   ; qtot -48.777300
 1573         OS     50      G    O4'   1573 -0.35480000  16.000000   ; qtot -49.132100
 1574         CT     50      G    C1'   1574 0.01910000  12.010000   ; qtot -49.113000
 1575         H2     50      G    H1'   1575 0.20060000   1.008000   ; qtot -48.912400
 1576         NR     50      G     N9   1576 0.04920000  14.010000   ; qtot -48.863200
 1577         CP     50      G     C8   1577 0.13740000  12.010000   ; qtot -48.725800
 1578         H5     50      G     H8   1578 0.16400000   1.008000   ; qtot -48.561800
 1579         NB     50      G     N7   1579 -0.57090000  14.010000   ; qtot -49.132700
 1580         CB     50      G     C5   1580 0.17440000  12.010000   ; qtot -48.958300
 1581          C     50      G     C6   1581 0.47700000  12.010000   ; qtot -48.481300
 1582          O     50      G     O6   1582 -0.55970000  16.000000   ; qtot -49.041000
 1583         NA     50      G     N1   1583 -0.56060000  14.010000   ; qtot -49.601600
 1584          H     50      G     H1   1584 0.42430000   1.008000   ; qtot -49.177300
 1585         CA     50      G     C2   1585 0.76570000  12.010000   ; qtot -48.411600
 1586         N2     50      G     N2   1586 -1.01580000  14.010000   ; qtot -49.427400
 1587          H     50      G    H21   1587 0.46070000   1.008000   ; qtot -48.966700
 1588          H     50      G    H22   1588 0.46070000   1.008000   ; qtot -48.506000
 1589         NC     50      G     N3   1589 -0.63230000  14.010000   ; qtot -49.138300
 1590         CB     50      G     C4   1590 0.12220000  12.010000   ; qtot -49.016100
 1591         CT     50      G    C3'   1591 0.20220000  12.010000   ; qtot -48.813900
 1592         H1     50      G    H3'   1592 0.06150000   1.008000   ; qtot -48.752400
 1593         CT     50      G    C2'   1593 0.06700000  12.010000   ; qtot -48.685400
 1594         H1     50      G    H2'   1594 0.09720000   1.008000   ; qtot -48.588200
 1595         OH     50      G    O2'   1595 -0.61390000  16.000000   ; qtot -49.202100
 1596         HO     50      G   HO2'   1596 0.41860000   1.008000   ; qtot -48.783500
 1597         OR     50      G    O3'   1597 -0.52460000  16.000000   ; qtot -49.308100
; residue   51 C rtp C q -1.0
 1598          P     51      C      P   1598 1.16620000  30.970000   ; qtot -48.141900
 1599         OQ     51      C    OP1   1599 -0.77600000  16.000000   ; qtot -48.917900
 1600         OQ     51      C    OP2   1600 -0.77600000  16.000000   ; qtot -49.693900
 1601         OR     51      C    O5'   1601 -0.49890000  16.000000   ; qtot -50.192800
 1602         CI     51      C    C5'   1602 0.05580000  12.010000   ; qtot -50.137000
 1603         H1     51      C    H5'   1603 0.06790000   1.008000   ; qtot -50.069100
 1604         H1     51      C   H5''   1604 0.06790000   1.008000   ; qtot -50.001200
 1605         CT     51      C    C4'   1605 0.10650000  12.010000   ; qtot -49.894700
 1606         H1     51      C    H4'   1606 0.11740000   1.008000   ; qtot -49.777300
 1607         OS     51      C    O4'   1607 -0.35480000  16.000000   ; qtot -50.132100
 1608         CT     51      C    C1'   1608 0.00660000  12.010000   ; qtot -50.125500
 1609         H2     51      C    H1'   1609 0.20290000   1.008000   ; qtot -49.922600
 1610         N*     51      C     N1   1610 -0.04840000  14.010000   ; qtot -49.971000
 1611         C4     51      C     C6   1611 0.00530000  12.010000   ; qtot -49.965700
 1612         H4     51      C     H6   1612 0.19580000   1.008000   ; qtot -49.769900
 1613         C4     51      C     C5   1613 -0.52150000  12.010000   ; qtot -50.291400
 1614         HA     51      C     H5   1614 0.19280000   1.008000   ; qtot -50.098600
 1615         CA     51      C     C4   1615 0.81850000  12.010000   ; qtot -49.280100
 1616         N2     51      C     N4   1616 -0.87160000  14.010000   ; qtot -50.151700
 1617          H     51      C    H41   1617 0.38270000   1.008000   ; qtot -49.769000
 1618          H     51      C    H42   1618 0.38270000   1.008000   ; qtot -49.386300
 1619         NC     51      C     N3   1619 -0.75840000  14.010000   ; qtot -50.144700
 1620          C     51      C     C2   1620 0.75380000  12.010000   ; qtot -49.390900
 1621          O     51      C     O2   1621 -0.62520000  16.000000   ; qtot -50.016100
 1622         CT     51      C    C3'   1622 0.20220000  12.010000   ; qtot -49.813900
 1623         H1     51      C    H3'   1623 0.06150000   1.008000   ; qtot -49.752400
 1624         CT     51      C    C2'   1624 0.06700000  12.010000   ; qtot -49.685400
 1625         H1     51      C    H2'   1625 0.09720000   1.008000   ; qtot -49.588200
 1626         OH     51      C    O2'   1626 -0.61390000  16.000000   ; qtot -50.202100
 1627         HO     51      C   HO2'   1627 0.41860000   1.008000   ; qtot -49.783500
 1628         OR     51      C    O3'   1628 -0.52460000  16.000000   ; qtot -50.308100
; residue   52 A rtp A q -1.0
 1629          P     52      A      P   1629 1.16620000  30.970000   ; qtot -49.141900
 1630         OQ     52      A    OP1   1630 -0.77600000  16.000000   ; qtot -49.917900
 1631         OQ     52      A    OP2   1631 -0.77600000  16.000000   ; qtot -50.693900
 1632         OR     52      A    O5'   1632 -0.49890000  16.000000   ; qtot -51.192800
 1633         CI     52      A    C5'   1633 0.05580000  12.010000   ; qtot -51.137000
 1634         H1     52      A    H5'   1634 0.06790000   1.008000   ; qtot -51.069100
 1635         H1     52      A   H5''   1635 0.06790000   1.008000   ; qtot -51.001200
 1636         CT     52      A    C4'   1636 0.10650000  12.010000   ; qtot -50.894700
 1637         H1     52      A    H4'   1637 0.11740000   1.008000   ; qtot -50.777300
 1638         OS     52      A    O4'   1638 -0.35480000  16.000000   ; qtot -51.132100
 1639         CT     52      A    C1'   1639 0.03940000  12.010000   ; qtot -51.092700
 1640         H2     52      A    H1'   1640 0.20070000   1.008000   ; qtot -50.892000
 1641         NR     52      A     N9   1641 -0.02510000  14.010000   ; qtot -50.917100
 1642         C5     52      A     C8   1642 0.20060000  12.010000   ; qtot -50.716500
 1643         H5     52      A     H8   1643 0.15530000   1.008000   ; qtot -50.561200
 1644         NB     52      A     N7   1644 -0.60730000  14.010000   ; qtot -51.168500
 1645         CE     52      A     C5   1645 0.05150000  12.010000   ; qtot -51.117000
 1646         CF     52      A     C6   1646 0.70090000  12.010000   ; qtot -50.416100
 1647         N2     52      A     N6   1647 -1.00880000  14.010000   ; qtot -51.424900
 1648          H     52      A    H61   1648 0.47380000   1.008000   ; qtot -50.951100
 1649          H     52      A    H62   1649 0.47380000   1.008000   ; qtot -50.477300
 1650         ND     52      A     N1   1650 -0.79690000  14.010000   ; qtot -51.274200
 1651         CQ     52      A     C2   1651 0.58750000  12.010000   ; qtot -50.686700
 1652         H5     52      A     H2   1652 0.06500000   1.008000   ; qtot -50.621700
 1653         ND     52      A     N3   1653 -0.69970000  14.010000   ; qtot -51.321400
 1654         CE     52      A     C4   1654 0.30530000  12.010000   ; qtot -51.016100
 1655         CT     52      A    C3'   1655 0.20220000  12.010000   ; qtot -50.813900
 1656         H1     52      A    H3'   1656 0.06150000   1.008000   ; qtot -50.752400
 1657         CT     52      A    C2'   1657 0.06700000  12.010000   ; qtot -50.685400
 1658         H1     52      A    H2'   1658 0.09720000   1.008000   ; qtot -50.588200
 1659         OH     52      A    O2'   1659 -0.61390000  16.000000   ; qtot -51.202100
 1660         HO     52      A   HO2'   1660 0.41860000   1.008000   ; qtot -50.783500
 1661         OR     52      A    O3'   1661 -0.52460000  16.000000   ; qtot -51.308100
; residue   53 C rtp C q -1.0
 1662          P     53      C      P   1662 1.16620000  30.970000   ; qtot -50.141900
 1663         OQ     53      C    OP1   1663 -0.77600000  16.000000   ; qtot -50.917900
 1664         OQ     53      C    OP2   1664 -0.77600000  16.000000   ; qtot -51.693900
 1665         OR     53      C    O5'   1665 -0.49890000  16.000000   ; qtot -52.192800
 1666         CI     53      C    C5'   1666 0.05580000  12.010000   ; qtot -52.137000
 1667         H1     53      C    H5'   1667 0.06790000   1.008000   ; qtot -52.069100
 1668         H1     53      C   H5''   1668 0.06790000   1.008000   ; qtot -52.001200
 1669         CT     53      C    C4'   1669 0.10650000  12.010000   ; qtot -51.894700
 1670         H1     53      C    H4'   1670 0.11740000   1.008000   ; qtot -51.777300
 1671         OS     53      C    O4'   1671 -0.35480000  16.000000   ; qtot -52.132100
 1672         CT     53      C    C1'   1672 0.00660000  12.010000   ; qtot -52.125500
 1673         H2     53      C    H1'   1673 0.20290000   1.008000   ; qtot -51.922600
 1674         N*     53      C     N1   1674 -0.04840000  14.010000   ; qtot -51.971000
 1675         C4     53      C     C6   1675 0.00530000  12.010000   ; qtot -51.965700
 1676         H4     53      C     H6   1676 0.19580000   1.008000   ; qtot -51.769900
 1677         C4     53      C     C5   1677 -0.52150000  12.010000   ; qtot -52.291400
 1678         HA     53      C     H5   1678 0.19280000   1.008000   ; qtot -52.098600
 1679         CA     53      C     C4   1679 0.81850000  12.010000   ; qtot -51.280100
 1680         N2     53      C     N4   1680 -0.87160000  14.010000   ; qtot -52.151700
 1681          H     53      C    H41   1681 0.38270000   1.008000   ; qtot -51.769000
 1682          H     53      C    H42   1682 0.38270000   1.008000   ; qtot -51.386300
 1683         NC     53      C     N3   1683 -0.75840000  14.010000   ; qtot -52.144700
 1684          C     53      C     C2   1684 0.75380000  12.010000   ; qtot -51.390900
 1685          O     53      C     O2   1685 -0.62520000  16.000000   ; qtot -52.016100
 1686         CT     53      C    C3'   1686 0.20220000  12.010000   ; qtot -51.813900
 1687         H1     53      C    H3'   1687 0.06150000   1.008000   ; qtot -51.752400
 1688         CT     53      C    C2'   1688 0.06700000  12.010000   ; qtot -51.685400
 1689         H1     53      C    H2'   1689 0.09720000   1.008000   ; qtot -51.588200
 1690         OH     53      C    O2'   1690 -0.61390000  16.000000   ; qtot -52.202100
 1691         HO     53      C   HO2'   1691 0.41860000   1.008000   ; qtot -51.783500
 1692         OR     53      C    O3'   1692 -0.52460000  16.000000   ; qtot -52.308100
; residue   54 A rtp A q -1.0
 1693          P     54      A      P   1693 1.16620000  30.970000   ; qtot -51.141900
 1694         OQ     54      A    OP1   1694 -0.77600000  16.000000   ; qtot -51.917900
 1695         OQ     54      A    OP2   1695 -0.77600000  16.000000   ; qtot -52.693900
 1696         OR     54      A    O5'   1696 -0.49890000  16.000000   ; qtot -53.192800
 1697         CI     54      A    C5'   1697 0.05580000  12.010000   ; qtot -53.137000
 1698         H1     54      A    H5'   1698 0.06790000   1.008000   ; qtot -53.069100
 1699         H1     54      A   H5''   1699 0.06790000   1.008000   ; qtot -53.001200
 1700         CT     54      A    C4'   1700 0.10650000  12.010000   ; qtot -52.894700
 1701         H1     54      A    H4'   1701 0.11740000   1.008000   ; qtot -52.777300
 1702         OS     54      A    O4'   1702 -0.35480000  16.000000   ; qtot -53.132100
 1703         CT     54      A    C1'   1703 0.03940000  12.010000   ; qtot -53.092700
 1704         H2     54      A    H1'   1704 0.20070000   1.008000   ; qtot -52.892000
 1705         NR     54      A     N9   1705 -0.02510000  14.010000   ; qtot -52.917100
 1706         C5     54      A     C8   1706 0.20060000  12.010000   ; qtot -52.716500
 1707         H5     54      A     H8   1707 0.15530000   1.008000   ; qtot -52.561200
 1708         NB     54      A     N7   1708 -0.60730000  14.010000   ; qtot -53.168500
 1709         CE     54      A     C5   1709 0.05150000  12.010000   ; qtot -53.117000
 1710         CF     54      A     C6   1710 0.70090000  12.010000   ; qtot -52.416100
 1711         N2     54      A     N6   1711 -1.00880000  14.010000   ; qtot -53.424900
 1712          H     54      A    H61   1712 0.47380000   1.008000   ; qtot -52.951100
 1713          H     54      A    H62   1713 0.47380000   1.008000   ; qtot -52.477300
 1714         ND     54      A     N1   1714 -0.79690000  14.010000   ; qtot -53.274200
 1715         CQ     54      A     C2   1715 0.58750000  12.010000   ; qtot -52.686700
 1716         H5     54      A     H2   1716 0.06500000   1.008000   ; qtot -52.621700
 1717         ND     54      A     N3   1717 -0.69970000  14.010000   ; qtot -53.321400
 1718         CE     54      A     C4   1718 0.30530000  12.010000   ; qtot -53.016100
 1719         CT     54      A    C3'   1719 0.20220000  12.010000   ; qtot -52.813900
 1720         H1     54      A    H3'   1720 0.06150000   1.008000   ; qtot -52.752400
 1721         CT     54      A    C2'   1721 0.06700000  12.010000   ; qtot -52.685400
 1722         H1     54      A    H2'   1722 0.09720000   1.008000   ; qtot -52.588200
 1723         OH     54      A    O2'   1723 -0.61390000  16.000000   ; qtot -53.202100
 1724         HO     54      A   HO2'   1724 0.41860000   1.008000   ; qtot -52.783500
 1725         OR     54      A    O3'   1725 -0.52460000  16.000000   ; qtot -53.308100
; residue   55 G rtp G q -1.0
 1726          P     55      G      P   1726 1.16620000  30.970000   ; qtot -52.141900
 1727         OQ     55      G    OP1   1727 -0.77600000  16.000000   ; qtot -52.917900
 1728         OQ     55      G    OP2   1728 -0.77600000  16.000000   ; qtot -53.693900
 1729         OR     55      G    O5'   1729 -0.49890000  16.000000   ; qtot -54.192800
 1730         CI     55      G    C5'   1730 0.05580000  12.010000   ; qtot -54.137000
 1731         H1     55      G    H5'   1731 0.06790000   1.008000   ; qtot -54.069100
 1732         H1     55      G   H5''   1732 0.06790000   1.008000   ; qtot -54.001200
 1733         CT     55      G    C4'   1733 0.10650000  12.010000   ; qtot -53.894700
 1734         H1     55      G    H4'   1734 0.11740000   1.008000   ; qtot -53.777300
 1735         OS     55      G    O4'   1735 -0.35480000  16.000000   ; qtot -54.132100
 1736         CT     55      G    C1'   1736 0.01910000  12.010000   ; qtot -54.113000
 1737         H2     55      G    H1'   1737 0.20060000   1.008000   ; qtot -53.912400
 1738         NR     55      G     N9   1738 0.04920000  14.010000   ; qtot -53.863200
 1739         CP     55      G     C8   1739 0.13740000  12.010000   ; qtot -53.725800
 1740         H5     55      G     H8   1740 0.16400000   1.008000   ; qtot -53.561800
 1741         NB     55      G     N7   1741 -0.57090000  14.010000   ; qtot -54.132700
 1742         CB     55      G     C5   1742 0.17440000  12.010000   ; qtot -53.958300
 1743          C     55      G     C6   1743 0.47700000  12.010000   ; qtot -53.481300
 1744          O     55      G     O6   1744 -0.55970000  16.000000   ; qtot -54.041000
 1745         NA     55      G     N1   1745 -0.56060000  14.010000   ; qtot -54.601600
 1746          H     55      G     H1   1746 0.42430000   1.008000   ; qtot -54.177300
 1747         CA     55      G     C2   1747 0.76570000  12.010000   ; qtot -53.411600
 1748         N2     55      G     N2   1748 -1.01580000  14.010000   ; qtot -54.427400
 1749          H     55      G    H21   1749 0.46070000   1.008000   ; qtot -53.966700
 1750          H     55      G    H22   1750 0.46070000   1.008000   ; qtot -53.506000
 1751         NC     55      G     N3   1751 -0.63230000  14.010000   ; qtot -54.138300
 1752         CB     55      G     C4   1752 0.12220000  12.010000   ; qtot -54.016100
 1753         CT     55      G    C3'   1753 0.20220000  12.010000   ; qtot -53.813900
 1754         H1     55      G    H3'   1754 0.06150000   1.008000   ; qtot -53.752400
 1755         CT     55      G    C2'   1755 0.06700000  12.010000   ; qtot -53.685400
 1756         H1     55      G    H2'   1756 0.09720000   1.008000   ; qtot -53.588200
 1757         OH     55      G    O2'   1757 -0.61390000  16.000000   ; qtot -54.202100
 1758         HO     55      G   HO2'   1758 0.41860000   1.008000   ; qtot -53.783500
 1759         OR     55      G    O3'   1759 -0.52460000  16.000000   ; qtot -54.308100
; residue   56 G rtp G q -1.0
 1760          P     56      G      P   1760 1.16620000  30.970000   ; qtot -53.141900
 1761         OQ     56      G    OP1   1761 -0.77600000  16.000000   ; qtot -53.917900
 1762         OQ     56      G    OP2   1762 -0.77600000  16.000000   ; qtot -54.693900
 1763         OR     56      G    O5'   1763 -0.49890000  16.000000   ; qtot -55.192800
 1764         CI     56      G    C5'   1764 0.05580000  12.010000   ; qtot -55.137000
 1765         H1     56      G    H5'   1765 0.06790000   1.008000   ; qtot -55.069100
 1766         H1     56      G   H5''   1766 0.06790000   1.008000   ; qtot -55.001200
 1767         CT     56      G    C4'   1767 0.10650000  12.010000   ; qtot -54.894700
 1768         H1     56      G    H4'   1768 0.11740000   1.008000   ; qtot -54.777300
 1769         OS     56      G    O4'   1769 -0.35480000  16.000000   ; qtot -55.132100
 1770         CT     56      G    C1'   1770 0.01910000  12.010000   ; qtot -55.113000
 1771         H2     56      G    H1'   1771 0.20060000   1.008000   ; qtot -54.912400
 1772         NR     56      G     N9   1772 0.04920000  14.010000   ; qtot -54.863200
 1773         CP     56      G     C8   1773 0.13740000  12.010000   ; qtot -54.725800
 1774         H5     56      G     H8   1774 0.16400000   1.008000   ; qtot -54.561800
 1775         NB     56      G     N7   1775 -0.57090000  14.010000   ; qtot -55.132700
 1776         CB     56      G     C5   1776 0.17440000  12.010000   ; qtot -54.958300
 1777          C     56      G     C6   1777 0.47700000  12.010000   ; qtot -54.481300
 1778          O     56      G     O6   1778 -0.55970000  16.000000   ; qtot -55.041000
 1779         NA     56      G     N1   1779 -0.56060000  14.010000   ; qtot -55.601600
 1780          H     56      G     H1   1780 0.42430000   1.008000   ; qtot -55.177300
 1781         CA     56      G     C2   1781 0.76570000  12.010000   ; qtot -54.411600
 1782         N2     56      G     N2   1782 -1.01580000  14.010000   ; qtot -55.427400
 1783          H     56      G    H21   1783 0.46070000   1.008000   ; qtot -54.966700
 1784          H     56      G    H22   1784 0.46070000   1.008000   ; qtot -54.506000
 1785         NC     56      G     N3   1785 -0.63230000  14.010000   ; qtot -55.138300
 1786         CB     56      G     C4   1786 0.12220000  12.010000   ; qtot -55.016100
 1787         CT     56      G    C3'   1787 0.20220000  12.010000   ; qtot -54.813900
 1788         H1     56      G    H3'   1788 0.06150000   1.008000   ; qtot -54.752400
 1789         CT     56      G    C2'   1789 0.06700000  12.010000   ; qtot -54.685400
 1790         H1     56      G    H2'   1790 0.09720000   1.008000   ; qtot -54.588200
 1791         OH     56      G    O2'   1791 -0.61390000  16.000000   ; qtot -55.202100
 1792         HO     56      G   HO2'   1792 0.41860000   1.008000   ; qtot -54.783500
 1793         OR     56      G    O3'   1793 -0.52460000  16.000000   ; qtot -55.308100
; residue   57 C rtp C q -1.0
 1794          P     57      C      P   1794 1.16620000  30.970000   ; qtot -54.141900
 1795         OQ     57      C    OP1   1795 -0.77600000  16.000000   ; qtot -54.917900
 1796         OQ     57      C    OP2   1796 -0.77600000  16.000000   ; qtot -55.693900
 1797         OR     57      C    O5'   1797 -0.49890000  16.000000   ; qtot -56.192800
 1798         CI     57      C    C5'   1798 0.05580000  12.010000   ; qtot -56.137000
 1799         H1     57      C    H5'   1799 0.06790000   1.008000   ; qtot -56.069100
 1800         H1     57      C   H5''   1800 0.06790000   1.008000   ; qtot -56.001200
 1801         CT     57      C    C4'   1801 0.10650000  12.010000   ; qtot -55.894700
 1802         H1     57      C    H4'   1802 0.11740000   1.008000   ; qtot -55.777300
 1803         OS     57      C    O4'   1803 -0.35480000  16.000000   ; qtot -56.132100
 1804         CT     57      C    C1'   1804 0.00660000  12.010000   ; qtot -56.125500
 1805         H2     57      C    H1'   1805 0.20290000   1.008000   ; qtot -55.922600
 1806         N*     57      C     N1   1806 -0.04840000  14.010000   ; qtot -55.971000
 1807         C4     57      C     C6   1807 0.00530000  12.010000   ; qtot -55.965700
 1808         H4     57      C     H6   1808 0.19580000   1.008000   ; qtot -55.769900
 1809         C4     57      C     C5   1809 -0.52150000  12.010000   ; qtot -56.291400
 1810         HA     57      C     H5   1810 0.19280000   1.008000   ; qtot -56.098600
 1811         CA     57      C     C4   1811 0.81850000  12.010000   ; qtot -55.280100
 1812         N2     57      C     N4   1812 -0.87160000  14.010000   ; qtot -56.151700
 1813          H     57      C    H41   1813 0.38270000   1.008000   ; qtot -55.769000
 1814          H     57      C    H42   1814 0.38270000   1.008000   ; qtot -55.386300
 1815         NC     57      C     N3   1815 -0.75840000  14.010000   ; qtot -56.144700
 1816          C     57      C     C2   1816 0.75380000  12.010000   ; qtot -55.390900
 1817          O     57      C     O2   1817 -0.62520000  16.000000   ; qtot -56.016100
 1818         CT     57      C    C3'   1818 0.20220000  12.010000   ; qtot -55.813900
 1819         H1     57      C    H3'   1819 0.06150000   1.008000   ; qtot -55.752400
 1820         CT     57      C    C2'   1820 0.06700000  12.010000   ; qtot -55.685400
 1821         H1     57      C    H2'   1821 0.09720000   1.008000   ; qtot -55.588200
 1822         OH     57      C    O2'   1822 -0.61390000  16.000000   ; qtot -56.202100
 1823         HO     57      C   HO2'   1823 0.41860000   1.008000   ; qtot -55.783500
 1824         OR     57      C    O3'   1824 -0.52460000  16.000000   ; qtot -56.308100
; residue   58 A rtp A q -1.0
 1825          P     58      A      P   1825 1.16620000  30.970000   ; qtot -55.141900
 1826         OQ     58      A    OP1   1826 -0.77600000  16.000000   ; qtot -55.917900
 1827         OQ     58      A    OP2   1827 -0.77600000  16.000000   ; qtot -56.693900
 1828         OR     58      A    O5'   1828 -0.49890000  16.000000   ; qtot -57.192800
 1829         CI     58      A    C5'   1829 0.05580000  12.010000   ; qtot -57.137000
 1830         H1     58      A    H5'   1830 0.06790000   1.008000   ; qtot -57.069100
 1831         H1     58      A   H5''   1831 0.06790000   1.008000   ; qtot -57.001200
 1832         CT     58      A    C4'   1832 0.10650000  12.010000   ; qtot -56.894700
 1833         H1     58      A    H4'   1833 0.11740000   1.008000   ; qtot -56.777300
 1834         OS     58      A    O4'   1834 -0.35480000  16.000000   ; qtot -57.132100
 1835         CT     58      A    C1'   1835 0.03940000  12.010000   ; qtot -57.092700
 1836         H2     58      A    H1'   1836 0.20070000   1.008000   ; qtot -56.892000
 1837         NR     58      A     N9   1837 -0.02510000  14.010000   ; qtot -56.917100
 1838         C5     58      A     C8   1838 0.20060000  12.010000   ; qtot -56.716500
 1839         H5     58      A     H8   1839 0.15530000   1.008000   ; qtot -56.561200
 1840         NB     58      A     N7   1840 -0.60730000  14.010000   ; qtot -57.168500
 1841         CE     58      A     C5   1841 0.05150000  12.010000   ; qtot -57.117000
 1842         CF     58      A     C6   1842 0.70090000  12.010000   ; qtot -56.416100
 1843         N2     58      A     N6   1843 -1.00880000  14.010000   ; qtot -57.424900
 1844          H     58      A    H61   1844 0.47380000   1.008000   ; qtot -56.951100
 1845          H     58      A    H62   1845 0.47380000   1.008000   ; qtot -56.477300
 1846         ND     58      A     N1   1846 -0.79690000  14.010000   ; qtot -57.274200
 1847         CQ     58      A     C2   1847 0.58750000  12.010000   ; qtot -56.686700
 1848         H5     58      A     H2   1848 0.06500000   1.008000   ; qtot -56.621700
 1849         ND     58      A     N3   1849 -0.69970000  14.010000   ; qtot -57.321400
 1850         CE     58      A     C4   1850 0.30530000  12.010000   ; qtot -57.016100
 1851         CT     58      A    C3'   1851 0.20220000  12.010000   ; qtot -56.813900
 1852         H1     58      A    H3'   1852 0.06150000   1.008000   ; qtot -56.752400
 1853         CT     58      A    C2'   1853 0.06700000  12.010000   ; qtot -56.685400
 1854         H1     58      A    H2'   1854 0.09720000   1.008000   ; qtot -56.588200
 1855         OH     58      A    O2'   1855 -0.61390000  16.000000   ; qtot -57.202100
 1856         HO     58      A   HO2'   1856 0.41860000   1.008000   ; qtot -56.783500
 1857         OR     58      A    O3'   1857 -0.52460000  16.000000   ; qtot -57.308100
; residue   59 C rtp C q -1.0
 1858          P     59      C      P   1858 1.16620000  30.970000   ; qtot -56.141900
 1859         OQ     59      C    OP1   1859 -0.77600000  16.000000   ; qtot -56.917900
 1860         OQ     59      C    OP2   1860 -0.77600000  16.000000   ; qtot -57.693900
 1861         OR     59      C    O5'   1861 -0.49890000  16.000000   ; qtot -58.192800
 1862         CI     59      C    C5'   1862 0.05580000  12.010000   ; qtot -58.137000
 1863         H1     59      C    H5'   1863 0.06790000   1.008000   ; qtot -58.069100
 1864         H1     59      C   H5''   1864 0.06790000   1.008000   ; qtot -58.001200
 1865         CT     59      C    C4'   1865 0.10650000  12.010000   ; qtot -57.894700
 1866         H1     59      C    H4'   1866 0.11740000   1.008000   ; qtot -57.777300
 1867         OS     59      C    O4'   1867 -0.35480000  16.000000   ; qtot -58.132100
 1868         CT     59      C    C1'   1868 0.00660000  12.010000   ; qtot -58.125500
 1869         H2     59      C    H1'   1869 0.20290000   1.008000   ; qtot -57.922600
 1870         N*     59      C     N1   1870 -0.04840000  14.010000   ; qtot -57.971000
 1871         C4     59      C     C6   1871 0.00530000  12.010000   ; qtot -57.965700
 1872         H4     59      C     H6   1872 0.19580000   1.008000   ; qtot -57.769900
 1873         C4     59      C     C5   1873 -0.52150000  12.010000   ; qtot -58.291400
 1874         HA     59      C     H5   1874 0.19280000   1.008000   ; qtot -58.098600
 1875         CA     59      C     C4   1875 0.81850000  12.010000   ; qtot -57.280100
 1876         N2     59      C     N4   1876 -0.87160000  14.010000   ; qtot -58.151700
 1877          H     59      C    H41   1877 0.38270000   1.008000   ; qtot -57.769000
 1878          H     59      C    H42   1878 0.38270000   1.008000   ; qtot -57.386300
 1879         NC     59      C     N3   1879 -0.75840000  14.010000   ; qtot -58.144700
 1880          C     59      C     C2   1880 0.75380000  12.010000   ; qtot -57.390900
 1881          O     59      C     O2   1881 -0.62520000  16.000000   ; qtot -58.016100
 1882         CT     59      C    C3'   1882 0.20220000  12.010000   ; qtot -57.813900
 1883         H1     59      C    H3'   1883 0.06150000   1.008000   ; qtot -57.752400
 1884         CT     59      C    C2'   1884 0.06700000  12.010000   ; qtot -57.685400
 1885         H1     59      C    H2'   1885 0.09720000   1.008000   ; qtot -57.588200
 1886         OH     59      C    O2'   1886 -0.61390000  16.000000   ; qtot -58.202100
 1887         HO     59      C   HO2'   1887 0.41860000   1.008000   ; qtot -57.783500
 1888         OR     59      C    O3'   1888 -0.52460000  16.000000   ; qtot -58.308100
; residue   60 U rtp U q -1.0
 1889          P     60      U      P   1889 1.16620000  30.970000   ; qtot -57.141900
 1890         OQ     60      U    OP1   1890 -0.77600000  16.000000   ; qtot -57.917900
 1891         OQ     60      U    OP2   1891 -0.77600000  16.000000   ; qtot -58.693900
 1892         OR     60      U    O5'   1892 -0.49890000  16.000000   ; qtot -59.192800
 1893         CI     60      U    C5'   1893 0.05580000  12.010000   ; qtot -59.137000
 1894         H1     60      U    H5'   1894 0.06790000   1.008000   ; qtot -59.069100
 1895         H1     60      U   H5''   1895 0.06790000   1.008000   ; qtot -59.001200
 1896         CT     60      U    C4'   1896 0.10650000  12.010000   ; qtot -58.894700
 1897         H1     60      U    H4'   1897 0.11740000   1.008000   ; qtot -58.777300
 1898         OS     60      U    O4'   1898 -0.35480000  16.000000   ; qtot -59.132100
 1899         CT     60      U    C1'   1899 0.06740000  12.010000   ; qtot -59.064700
 1900         H2     60      U    H1'   1900 0.18240000   1.008000   ; qtot -58.882300
 1901         N*     60      U     N1   1901 0.04180000  14.010000   ; qtot -58.840500
 1902         CS     60      U     C6   1902 -0.11260000  12.010000   ; qtot -58.953100
 1903         H4     60      U     H6   1903 0.21880000   1.008000   ; qtot -58.734300
 1904         CS     60      U     C5   1904 -0.36350000  12.010000   ; qtot -59.097800
 1905         HA     60      U     H5   1905 0.18110000   1.008000   ; qtot -58.916700
 1906          C     60      U     C4   1906 0.59520000  12.010000   ; qtot -58.321500
 1907          O     60      U     O4   1907 -0.57610000  16.000000   ; qtot -58.897600
 1908         NA     60      U     N3   1908 -0.39130000  14.010000   ; qtot -59.288900
 1909          H     60      U     H3   1909 0.35180000   1.008000   ; qtot -58.937100
 1910          C     60      U     C2   1910 0.46870000  12.010000   ; qtot -58.468400
 1911          O     60      U     O2   1911 -0.54770000  16.000000   ; qtot -59.016100
 1912         CT     60      U    C3'   1912 0.20220000  12.010000   ; qtot -58.813900
 1913         H1     60      U    H3'   1913 0.06150000   1.008000   ; qtot -58.752400
 1914         CT     60      U    C2'   1914 0.06700000  12.010000   ; qtot -58.685400
 1915         H1     60      U    H2'   1915 0.09720000   1.008000   ; qtot -58.588200
 1916         OH     60      U    O2'   1916 -0.61390000  16.000000   ; qtot -59.202100
 1917         HO     60      U   HO2'   1917 0.41860000   1.008000   ; qtot -58.783500
 1918         OR     60      U    O3'   1918 -0.52460000  16.000000   ; qtot -59.308100
; residue   61 A rtp A q -1.0
 1919          P     61      A      P   1919 1.16620000  30.970000   ; qtot -58.141900
 1920         OQ     61      A    OP1   1920 -0.77600000  16.000000   ; qtot -58.917900
 1921         OQ     61      A    OP2   1921 -0.77600000  16.000000   ; qtot -59.693900
 1922         OR     61      A    O5'   1922 -0.49890000  16.000000   ; qtot -60.192800
 1923         CI     61      A    C5'   1923 0.05580000  12.010000   ; qtot -60.137000
 1924         H1     61      A    H5'   1924 0.06790000   1.008000   ; qtot -60.069100
 1925         H1     61      A   H5''   1925 0.06790000   1.008000   ; qtot -60.001200
 1926         CT     61      A    C4'   1926 0.10650000  12.010000   ; qtot -59.894700
 1927         H1     61      A    H4'   1927 0.11740000   1.008000   ; qtot -59.777300
 1928         OS     61      A    O4'   1928 -0.35480000  16.000000   ; qtot -60.132100
 1929         CT     61      A    C1'   1929 0.03940000  12.010000   ; qtot -60.092700
 1930         H2     61      A    H1'   1930 0.20070000   1.008000   ; qtot -59.892000
 1931         NR     61      A     N9   1931 -0.02510000  14.010000   ; qtot -59.917100
 1932         C5     61      A     C8   1932 0.20060000  12.010000   ; qtot -59.716500
 1933         H5     61      A     H8   1933 0.15530000   1.008000   ; qtot -59.561200
 1934         NB     61      A     N7   1934 -0.60730000  14.010000   ; qtot -60.168500
 1935         CE     61      A     C5   1935 0.05150000  12.010000   ; qtot -60.117000
 1936         CF     61      A     C6   1936 0.70090000  12.010000   ; qtot -59.416100
 1937         N2     61      A     N6   1937 -1.00880000  14.010000   ; qtot -60.424900
 1938          H     61      A    H61   1938 0.47380000   1.008000   ; qtot -59.951100
 1939          H     61      A    H62   1939 0.47380000   1.008000   ; qtot -59.477300
 1940         ND     61      A     N1   1940 -0.79690000  14.010000   ; qtot -60.274200
 1941         CQ     61      A     C2   1941 0.58750000  12.010000   ; qtot -59.686700
 1942         H5     61      A     H2   1942 0.06500000   1.008000   ; qtot -59.621700
 1943         ND     61      A     N3   1943 -0.69970000  14.010000   ; qtot -60.321400
 1944         CE     61      A     C4   1944 0.30530000  12.010000   ; qtot -60.016100
 1945         CT     61      A    C3'   1945 0.20220000  12.010000   ; qtot -59.813900
 1946         H1     61      A    H3'   1946 0.06150000   1.008000   ; qtot -59.752400
 1947         CT     61      A    C2'   1947 0.06700000  12.010000   ; qtot -59.685400
 1948         H1     61      A    H2'   1948 0.09720000   1.008000   ; qtot -59.588200
 1949         OH     61      A    O2'   1949 -0.61390000  16.000000   ; qtot -60.202100
 1950         HO     61      A   HO2'   1950 0.41860000   1.008000   ; qtot -59.783500
 1951         OR     61      A    O3'   1951 -0.52460000  16.000000   ; qtot -60.308100
; residue   62 G rtp G q -1.0
 1952          P     62      G      P   1952 1.16620000  30.970000   ; qtot -59.141900
 1953         OQ     62      G    OP1   1953 -0.77600000  16.000000   ; qtot -59.917900
 1954         OQ     62      G    OP2   1954 -0.77600000  16.000000   ; qtot -60.693900
 1955         OR     62      G    O5'   1955 -0.49890000  16.000000   ; qtot -61.192800
 1956         CI     62      G    C5'   1956 0.05580000  12.010000   ; qtot -61.137000
 1957         H1     62      G    H5'   1957 0.06790000   1.008000   ; qtot -61.069100
 1958         H1     62      G   H5''   1958 0.06790000   1.008000   ; qtot -61.001200
 1959         CT     62      G    C4'   1959 0.10650000  12.010000   ; qtot -60.894700
 1960         H1     62      G    H4'   1960 0.11740000   1.008000   ; qtot -60.777300
 1961         OS     62      G    O4'   1961 -0.35480000  16.000000   ; qtot -61.132100
 1962         CT     62      G    C1'   1962 0.01910000  12.010000   ; qtot -61.113000
 1963         H2     62      G    H1'   1963 0.20060000   1.008000   ; qtot -60.912400
 1964         NR     62      G     N9   1964 0.04920000  14.010000   ; qtot -60.863200
 1965         CP     62      G     C8   1965 0.13740000  12.010000   ; qtot -60.725800
 1966         H5     62      G     H8   1966 0.16400000   1.008000   ; qtot -60.561800
 1967         NB     62      G     N7   1967 -0.57090000  14.010000   ; qtot -61.132700
 1968         CB     62      G     C5   1968 0.17440000  12.010000   ; qtot -60.958300
 1969          C     62      G     C6   1969 0.47700000  12.010000   ; qtot -60.481300
 1970          O     62      G     O6   1970 -0.55970000  16.000000   ; qtot -61.041000
 1971         NA     62      G     N1   1971 -0.56060000  14.010000   ; qtot -61.601600
 1972          H     62      G     H1   1972 0.42430000   1.008000   ; qtot -61.177300
 1973         CA     62      G     C2   1973 0.76570000  12.010000   ; qtot -60.411600
 1974         N2     62      G     N2   1974 -1.01580000  14.010000   ; qtot -61.427400
 1975          H     62      G    H21   1975 0.46070000   1.008000   ; qtot -60.966700
 1976          H     62      G    H22   1976 0.46070000   1.008000   ; qtot -60.506000
 1977         NC     62      G     N3   1977 -0.63230000  14.010000   ; qtot -61.138300
 1978         CB     62      G     C4   1978 0.12220000  12.010000   ; qtot -61.016100
 1979         CT     62      G    C3'   1979 0.20220000  12.010000   ; qtot -60.813900
 1980         H1     62      G    H3'   1980 0.06150000   1.008000   ; qtot -60.752400
 1981         CT     62      G    C2'   1981 0.06700000  12.010000   ; qtot -60.685400
 1982         H1     62      G    H2'   1982 0.09720000   1.008000   ; qtot -60.588200
 1983         OH     62      G    O2'   1983 -0.61390000  16.000000   ; qtot -61.202100
 1984         HO     62      G   HO2'   1984 0.41860000   1.008000   ; qtot -60.783500
 1985         OR     62      G    O3'   1985 -0.52460000  16.000000   ; qtot -61.308100
; residue   63 U rtp U q -1.0
 1986          P     63      U      P   1986 1.16620000  30.970000   ; qtot -60.141900
 1987         OQ     63      U    OP1   1987 -0.77600000  16.000000   ; qtot -60.917900
 1988         OQ     63      U    OP2   1988 -0.77600000  16.000000   ; qtot -61.693900
 1989         OR     63      U    O5'   1989 -0.49890000  16.000000   ; qtot -62.192800
 1990         CI     63      U    C5'   1990 0.05580000  12.010000   ; qtot -62.137000
 1991         H1     63      U    H5'   1991 0.06790000   1.008000   ; qtot -62.069100
 1992         H1     63      U   H5''   1992 0.06790000   1.008000   ; qtot -62.001200
 1993         CT     63      U    C4'   1993 0.10650000  12.010000   ; qtot -61.894700
 1994         H1     63      U    H4'   1994 0.11740000   1.008000   ; qtot -61.777300
 1995         OS     63      U    O4'   1995 -0.35480000  16.000000   ; qtot -62.132100
 1996         CT     63      U    C1'   1996 0.06740000  12.010000   ; qtot -62.064700
 1997         H2     63      U    H1'   1997 0.18240000   1.008000   ; qtot -61.882300
 1998         N*     63      U     N1   1998 0.04180000  14.010000   ; qtot -61.840500
 1999         CS     63      U     C6   1999 -0.11260000  12.010000   ; qtot -61.953100
 2000         H4     63      U     H6   2000 0.21880000   1.008000   ; qtot -61.734300
 2001         CS     63      U     C5   2001 -0.36350000  12.010000   ; qtot -62.097800
 2002         HA     63      U     H5   2002 0.18110000   1.008000   ; qtot -61.916700
 2003          C     63      U     C4   2003 0.59520000  12.010000   ; qtot -61.321500
 2004          O     63      U     O4   2004 -0.57610000  16.000000   ; qtot -61.897600
 2005         NA     63      U     N3   2005 -0.39130000  14.010000   ; qtot -62.288900
 2006          H     63      U     H3   2006 0.35180000   1.008000   ; qtot -61.937100
 2007          C     63      U     C2   2007 0.46870000  12.010000   ; qtot -61.468400
 2008          O     63      U     O2   2008 -0.54770000  16.000000   ; qtot -62.016100
 2009         CT     63      U    C3'   2009 0.20220000  12.010000   ; qtot -61.813900
 2010         H1     63      U    H3'   2010 0.06150000   1.008000   ; qtot -61.752400
 2011         CT     63      U    C2'   2011 0.06700000  12.010000   ; qtot -61.685400
 2012         H1     63      U    H2'   2012 0.09720000   1.008000   ; qtot -61.588200
 2013         OH     63      U    O2'   2013 -0.61390000  16.000000   ; qtot -62.202100
 2014         HO     63      U   HO2'   2014 0.41860000   1.008000   ; qtot -61.783500
 2015         OR     63      U    O3'   2015 -0.52460000  16.000000   ; qtot -62.308100
; residue   64 A rtp A q -1.0
 2016          P     64      A      P   2016 1.16620000  30.970000   ; qtot -61.141900
 2017         OQ     64      A    OP1   2017 -0.77600000  16.000000   ; qtot -61.917900
 2018         OQ     64      A    OP2   2018 -0.77600000  16.000000   ; qtot -62.693900
 2019         OR     64      A    O5'   2019 -0.49890000  16.000000   ; qtot -63.192800
 2020         CI     64      A    C5'   2020 0.05580000  12.010000   ; qtot -63.137000
 2021         H1     64      A    H5'   2021 0.06790000   1.008000   ; qtot -63.069100
 2022         H1     64      A   H5''   2022 0.06790000   1.008000   ; qtot -63.001200
 2023         CT     64      A    C4'   2023 0.10650000  12.010000   ; qtot -62.894700
 2024         H1     64      A    H4'   2024 0.11740000   1.008000   ; qtot -62.777300
 2025         OS     64      A    O4'   2025 -0.35480000  16.000000   ; qtot -63.132100
 2026         CT     64      A    C1'   2026 0.03940000  12.010000   ; qtot -63.092700
 2027         H2     64      A    H1'   2027 0.20070000   1.008000   ; qtot -62.892000
 2028         NR     64      A     N9   2028 -0.02510000  14.010000   ; qtot -62.917100
 2029         C5     64      A     C8   2029 0.20060000  12.010000   ; qtot -62.716500
 2030         H5     64      A     H8   2030 0.15530000   1.008000   ; qtot -62.561200
 2031         NB     64      A     N7   2031 -0.60730000  14.010000   ; qtot -63.168500
 2032         CE     64      A     C5   2032 0.05150000  12.010000   ; qtot -63.117000
 2033         CF     64      A     C6   2033 0.70090000  12.010000   ; qtot -62.416100
 2034         N2     64      A     N6   2034 -1.00880000  14.010000   ; qtot -63.424900
 2035          H     64      A    H61   2035 0.47380000   1.008000   ; qtot -62.951100
 2036          H     64      A    H62   2036 0.47380000   1.008000   ; qtot -62.477300
 2037         ND     64      A     N1   2037 -0.79690000  14.010000   ; qtot -63.274200
 2038         CQ     64      A     C2   2038 0.58750000  12.010000   ; qtot -62.686700
 2039         H5     64      A     H2   2039 0.06500000   1.008000   ; qtot -62.621700
 2040         ND     64      A     N3   2040 -0.69970000  14.010000   ; qtot -63.321400
 2041         CE     64      A     C4   2041 0.30530000  12.010000   ; qtot -63.016100
 2042         CT     64      A    C3'   2042 0.20220000  12.010000   ; qtot -62.813900
 2043         H1     64      A    H3'   2043 0.06150000   1.008000   ; qtot -62.752400
 2044         CT     64      A    C2'   2044 0.06700000  12.010000   ; qtot -62.685400
 2045         H1     64      A    H2'   2045 0.09720000   1.008000   ; qtot -62.588200
 2046         OH     64      A    O2'   2046 -0.61390000  16.000000   ; qtot -63.202100
 2047         HO     64      A   HO2'   2047 0.41860000   1.008000   ; qtot -62.783500
 2048         OR     64      A    O3'   2048 -0.52460000  16.000000   ; qtot -63.308100
; residue   65 C rtp C q -1.0
 2049          P     65      C      P   2049 1.16620000  30.970000   ; qtot -62.141900
 2050         OQ     65      C    OP1   2050 -0.77600000  16.000000   ; qtot -62.917900
 2051         OQ     65      C    OP2   2051 -0.77600000  16.000000   ; qtot -63.693900
 2052         OR     65      C    O5'   2052 -0.49890000  16.000000   ; qtot -64.192800
 2053         CI     65      C    C5'   2053 0.05580000  12.010000   ; qtot -64.137000
 2054         H1     65      C    H5'   2054 0.06790000   1.008000   ; qtot -64.069100
 2055         H1     65      C   H5''   2055 0.06790000   1.008000   ; qtot -64.001200
 2056         CT     65      C    C4'   2056 0.10650000  12.010000   ; qtot -63.894700
 2057         H1     65      C    H4'   2057 0.11740000   1.008000   ; qtot -63.777300
 2058         OS     65      C    O4'   2058 -0.35480000  16.000000   ; qtot -64.132100
 2059         CT     65      C    C1'   2059 0.00660000  12.010000   ; qtot -64.125500
 2060         H2     65      C    H1'   2060 0.20290000   1.008000   ; qtot -63.922600
 2061         N*     65      C     N1   2061 -0.04840000  14.010000   ; qtot -63.971000
 2062         C4     65      C     C6   2062 0.00530000  12.010000   ; qtot -63.965700
 2063         H4     65      C     H6   2063 0.19580000   1.008000   ; qtot -63.769900
 2064         C4     65      C     C5   2064 -0.52150000  12.010000   ; qtot -64.291400
 2065         HA     65      C     H5   2065 0.19280000   1.008000   ; qtot -64.098600
 2066         CA     65      C     C4   2066 0.81850000  12.010000   ; qtot -63.280100
 2067         N2     65      C     N4   2067 -0.87160000  14.010000   ; qtot -64.151700
 2068          H     65      C    H41   2068 0.38270000   1.008000   ; qtot -63.769000
 2069          H     65      C    H42   2069 0.38270000   1.008000   ; qtot -63.386300
 2070         NC     65      C     N3   2070 -0.75840000  14.010000   ; qtot -64.144700
 2071          C     65      C     C2   2071 0.75380000  12.010000   ; qtot -63.390900
 2072          O     65      C     O2   2072 -0.62520000  16.000000   ; qtot -64.016100
 2073         CT     65      C    C3'   2073 0.20220000  12.010000   ; qtot -63.813900
 2074         H1     65      C    H3'   2074 0.06150000   1.008000   ; qtot -63.752400
 2075         CT     65      C    C2'   2075 0.06700000  12.010000   ; qtot -63.685400
 2076         H1     65      C    H2'   2076 0.09720000   1.008000   ; qtot -63.588200
 2077         OH     65      C    O2'   2077 -0.61390000  16.000000   ; qtot -64.202100
 2078         HO     65      C   HO2'   2078 0.41860000   1.008000   ; qtot -63.783500
 2079         OR     65      C    O3'   2079 -0.52460000  16.000000   ; qtot -64.308100
; residue   66 U rtp U q -1.0
 2080          P     66      U      P   2080 1.16620000  30.970000   ; qtot -63.141900
 2081         OQ     66      U    OP1   2081 -0.77600000  16.000000   ; qtot -63.917900
 2082         OQ     66      U    OP2   2082 -0.77600000  16.000000   ; qtot -64.693900
 2083         OR     66      U    O5'   2083 -0.49890000  16.000000   ; qtot -65.192800
 2084         CI     66      U    C5'   2084 0.05580000  12.010000   ; qtot -65.137000
 2085         H1     66      U    H5'   2085 0.06790000   1.008000   ; qtot -65.069100
 2086         H1     66      U   H5''   2086 0.06790000   1.008000   ; qtot -65.001200
 2087         CT     66      U    C4'   2087 0.10650000  12.010000   ; qtot -64.894700
 2088         H1     66      U    H4'   2088 0.11740000   1.008000   ; qtot -64.777300
 2089         OS     66      U    O4'   2089 -0.35480000  16.000000   ; qtot -65.132100
 2090         CT     66      U    C1'   2090 0.06740000  12.010000   ; qtot -65.064700
 2091         H2     66      U    H1'   2091 0.18240000   1.008000   ; qtot -64.882300
 2092         N*     66      U     N1   2092 0.04180000  14.010000   ; qtot -64.840500
 2093         CS     66      U     C6   2093 -0.11260000  12.010000   ; qtot -64.953100
 2094         H4     66      U     H6   2094 0.21880000   1.008000   ; qtot -64.734300
 2095         CS     66      U     C5   2095 -0.36350000  12.010000   ; qtot -65.097800
 2096         HA     66      U     H5   2096 0.18110000   1.008000   ; qtot -64.916700
 2097          C     66      U     C4   2097 0.59520000  12.010000   ; qtot -64.321500
 2098          O     66      U     O4   2098 -0.57610000  16.000000   ; qtot -64.897600
 2099         NA     66      U     N3   2099 -0.39130000  14.010000   ; qtot -65.288900
 2100          H     66      U     H3   2100 0.35180000   1.008000   ; qtot -64.937100
 2101          C     66      U     C2   2101 0.46870000  12.010000   ; qtot -64.468400
 2102          O     66      U     O2   2102 -0.54770000  16.000000   ; qtot -65.016100
 2103         CT     66      U    C3'   2103 0.20220000  12.010000   ; qtot -64.813900
 2104         H1     66      U    H3'   2104 0.06150000   1.008000   ; qtot -64.752400
 2105         CT     66      U    C2'   2105 0.06700000  12.010000   ; qtot -64.685400
 2106         H1     66      U    H2'   2106 0.09720000   1.008000   ; qtot -64.588200
 2107         OH     66      U    O2'   2107 -0.61390000  16.000000   ; qtot -65.202100
 2108         HO     66      U   HO2'   2108 0.41860000   1.008000   ; qtot -64.783500
 2109         OR     66      U    O3'   2109 -0.52460000  16.000000   ; qtot -65.308100
; residue   67 G rtp G q -1.0
 2110          P     67      G      P   2110 1.16620000  30.970000   ; qtot -64.141900
 2111         OQ     67      G    OP1   2111 -0.77600000  16.000000   ; qtot -64.917900
 2112         OQ     67      G    OP2   2112 -0.77600000  16.000000   ; qtot -65.693900
 2113         OR     67      G    O5'   2113 -0.49890000  16.000000   ; qtot -66.192800
 2114         CI     67      G    C5'   2114 0.05580000  12.010000   ; qtot -66.137000
 2115         H1     67      G    H5'   2115 0.06790000   1.008000   ; qtot -66.069100
 2116         H1     67      G   H5''   2116 0.06790000   1.008000   ; qtot -66.001200
 2117         CT     67      G    C4'   2117 0.10650000  12.010000   ; qtot -65.894700
 2118         H1     67      G    H4'   2118 0.11740000   1.008000   ; qtot -65.777300
 2119         OS     67      G    O4'   2119 -0.35480000  16.000000   ; qtot -66.132100
 2120         CT     67      G    C1'   2120 0.01910000  12.010000   ; qtot -66.113000
 2121         H2     67      G    H1'   2121 0.20060000   1.008000   ; qtot -65.912400
 2122         NR     67      G     N9   2122 0.04920000  14.010000   ; qtot -65.863200
 2123         CP     67      G     C8   2123 0.13740000  12.010000   ; qtot -65.725800
 2124         H5     67      G     H8   2124 0.16400000   1.008000   ; qtot -65.561800
 2125         NB     67      G     N7   2125 -0.57090000  14.010000   ; qtot -66.132700
 2126         CB     67      G     C5   2126 0.17440000  12.010000   ; qtot -65.958300
 2127          C     67      G     C6   2127 0.47700000  12.010000   ; qtot -65.481300
 2128          O     67      G     O6   2128 -0.55970000  16.000000   ; qtot -66.041000
 2129         NA     67      G     N1   2129 -0.56060000  14.010000   ; qtot -66.601600
 2130          H     67      G     H1   2130 0.42430000   1.008000   ; qtot -66.177300
 2131         CA     67      G     C2   2131 0.76570000  12.010000   ; qtot -65.411600
 2132         N2     67      G     N2   2132 -1.01580000  14.010000   ; qtot -66.427400
 2133          H     67      G    H21   2133 0.46070000   1.008000   ; qtot -65.966700
 2134          H     67      G    H22   2134 0.46070000   1.008000   ; qtot -65.506000
 2135         NC     67      G     N3   2135 -0.63230000  14.010000   ; qtot -66.138300
 2136         CB     67      G     C4   2136 0.12220000  12.010000   ; qtot -66.016100
 2137         CT     67      G    C3'   2137 0.20220000  12.010000   ; qtot -65.813900
 2138         H1     67      G    H3'   2138 0.06150000   1.008000   ; qtot -65.752400
 2139         CT     67      G    C2'   2139 0.06700000  12.010000   ; qtot -65.685400
 2140         H1     67      G    H2'   2140 0.09720000   1.008000   ; qtot -65.588200
 2141         OH     67      G    O2'   2141 -0.61390000  16.000000   ; qtot -66.202100
 2142         HO     67      G   HO2'   2142 0.41860000   1.008000   ; qtot -65.783500
 2143         OR     67      G    O3'   2143 -0.52460000  16.000000   ; qtot -66.308100
; residue   68 A rtp A q -1.0
 2144          P     68      A      P   2144 1.16620000  30.970000   ; qtot -65.141900
 2145         OQ     68      A    OP1   2145 -0.77600000  16.000000   ; qtot -65.917900
 2146         OQ     68      A    OP2   2146 -0.77600000  16.000000   ; qtot -66.693900
 2147         OR     68      A    O5'   2147 -0.49890000  16.000000   ; qtot -67.192800
 2148         CI     68      A    C5'   2148 0.05580000  12.010000   ; qtot -67.137000
 2149         H1     68      A    H5'   2149 0.06790000   1.008000   ; qtot -67.069100
 2150         H1     68      A   H5''   2150 0.06790000   1.008000   ; qtot -67.001200
 2151         CT     68      A    C4'   2151 0.10650000  12.010000   ; qtot -66.894700
 2152         H1     68      A    H4'   2152 0.11740000   1.008000   ; qtot -66.777300
 2153         OS     68      A    O4'   2153 -0.35480000  16.000000   ; qtot -67.132100
 2154         CT     68      A    C1'   2154 0.03940000  12.010000   ; qtot -67.092700
 2155         H2     68      A    H1'   2155 0.20070000   1.008000   ; qtot -66.892000
 2156         NR     68      A     N9   2156 -0.02510000  14.010000   ; qtot -66.917100
 2157         C5     68      A     C8   2157 0.20060000  12.010000   ; qtot -66.716500
 2158         H5     68      A     H8   2158 0.15530000   1.008000   ; qtot -66.561200
 2159         NB     68      A     N7   2159 -0.60730000  14.010000   ; qtot -67.168500
 2160         CE     68      A     C5   2160 0.05150000  12.010000   ; qtot -67.117000
 2161         CF     68      A     C6   2161 0.70090000  12.010000   ; qtot -66.416100
 2162         N2     68      A     N6   2162 -1.00880000  14.010000   ; qtot -67.424900
 2163          H     68      A    H61   2163 0.47380000   1.008000   ; qtot -66.951100
 2164          H     68      A    H62   2164 0.47380000   1.008000   ; qtot -66.477300
 2165         ND     68      A     N1   2165 -0.79690000  14.010000   ; qtot -67.274200
 2166         CQ     68      A     C2   2166 0.58750000  12.010000   ; qtot -66.686700
 2167         H5     68      A     H2   2167 0.06500000   1.008000   ; qtot -66.621700
 2168         ND     68      A     N3   2168 -0.69970000  14.010000   ; qtot -67.321400
 2169         CE     68      A     C4   2169 0.30530000  12.010000   ; qtot -67.016100
 2170         CT     68      A    C3'   2170 0.20220000  12.010000   ; qtot -66.813900
 2171         H1     68      A    H3'   2171 0.06150000   1.008000   ; qtot -66.752400
 2172         CT     68      A    C2'   2172 0.06700000  12.010000   ; qtot -66.685400
 2173         H1     68      A    H2'   2173 0.09720000   1.008000   ; qtot -66.588200
 2174         OH     68      A    O2'   2174 -0.61390000  16.000000   ; qtot -67.202100
 2175         HO     68      A   HO2'   2175 0.41860000   1.008000   ; qtot -66.783500
 2176         OR     68      A    O3'   2176 -0.52460000  16.000000   ; qtot -67.308100
; residue   69 U rtp U q -1.0
 2177          P     69      U      P   2177 1.16620000  30.970000   ; qtot -66.141900
 2178         OQ     69      U    OP1   2178 -0.77600000  16.000000   ; qtot -66.917900
 2179         OQ     69      U    OP2   2179 -0.77600000  16.000000   ; qtot -67.693900
 2180         OR     69      U    O5'   2180 -0.49890000  16.000000   ; qtot -68.192800
 2181         CI     69      U    C5'   2181 0.05580000  12.010000   ; qtot -68.137000
 2182         H1     69      U    H5'   2182 0.06790000   1.008000   ; qtot -68.069100
 2183         H1     69      U   H5''   2183 0.06790000   1.008000   ; qtot -68.001200
 2184         CT     69      U    C4'   2184 0.10650000  12.010000   ; qtot -67.894700
 2185         H1     69      U    H4'   2185 0.11740000   1.008000   ; qtot -67.777300
 2186         OS     69      U    O4'   2186 -0.35480000  16.000000   ; qtot -68.132100
 2187         CT     69      U    C1'   2187 0.06740000  12.010000   ; qtot -68.064700
 2188         H2     69      U    H1'   2188 0.18240000   1.008000   ; qtot -67.882300
 2189         N*     69      U     N1   2189 0.04180000  14.010000   ; qtot -67.840500
 2190         CS     69      U     C6   2190 -0.11260000  12.010000   ; qtot -67.953100
 2191         H4     69      U     H6   2191 0.21880000   1.008000   ; qtot -67.734300
 2192         CS     69      U     C5   2192 -0.36350000  12.010000   ; qtot -68.097800
 2193         HA     69      U     H5   2193 0.18110000   1.008000   ; qtot -67.916700
 2194          C     69      U     C4   2194 0.59520000  12.010000   ; qtot -67.321500
 2195          O     69      U     O4   2195 -0.57610000  16.000000   ; qtot -67.897600
 2196         NA     69      U     N3   2196 -0.39130000  14.010000   ; qtot -68.288900
 2197          H     69      U     H3   2197 0.35180000   1.008000   ; qtot -67.937100
 2198          C     69      U     C2   2198 0.46870000  12.010000   ; qtot -67.468400
 2199          O     69      U     O2   2199 -0.54770000  16.000000   ; qtot -68.016100
 2200         CT     69      U    C3'   2200 0.20220000  12.010000   ; qtot -67.813900
 2201         H1     69      U    H3'   2201 0.06150000   1.008000   ; qtot -67.752400
 2202         CT     69      U    C2'   2202 0.06700000  12.010000   ; qtot -67.685400
 2203         H1     69      U    H2'   2203 0.09720000   1.008000   ; qtot -67.588200
 2204         OH     69      U    O2'   2204 -0.61390000  16.000000   ; qtot -68.202100
 2205         HO     69      U   HO2'   2205 0.41860000   1.008000   ; qtot -67.783500
 2206         OR     69      U    O3'   2206 -0.52460000  16.000000   ; qtot -68.308100
; residue   70 G rtp G q -1.0
 2207          P     70      G      P   2207 1.16620000  30.970000   ; qtot -67.141900
 2208         OQ     70      G    OP1   2208 -0.77600000  16.000000   ; qtot -67.917900
 2209         OQ     70      G    OP2   2209 -0.77600000  16.000000   ; qtot -68.693900
 2210         OR     70      G    O5'   2210 -0.49890000  16.000000   ; qtot -69.192800
 2211         CI     70      G    C5'   2211 0.05580000  12.010000   ; qtot -69.137000
 2212         H1     70      G    H5'   2212 0.06790000   1.008000   ; qtot -69.069100
 2213         H1     70      G   H5''   2213 0.06790000   1.008000   ; qtot -69.001200
 2214         CT     70      G    C4'   2214 0.10650000  12.010000   ; qtot -68.894700
 2215         H1     70      G    H4'   2215 0.11740000   1.008000   ; qtot -68.777300
 2216         OS     70      G    O4'   2216 -0.35480000  16.000000   ; qtot -69.132100
 2217         CT     70      G    C1'   2217 0.01910000  12.010000   ; qtot -69.113000
 2218         H2     70      G    H1'   2218 0.20060000   1.008000   ; qtot -68.912400
 2219         NR     70      G     N9   2219 0.04920000  14.010000   ; qtot -68.863200
 2220         CP     70      G     C8   2220 0.13740000  12.010000   ; qtot -68.725800
 2221         H5     70      G     H8   2221 0.16400000   1.008000   ; qtot -68.561800
 2222         NB     70      G     N7   2222 -0.57090000  14.010000   ; qtot -69.132700
 2223         CB     70      G     C5   2223 0.17440000  12.010000   ; qtot -68.958300
 2224          C     70      G     C6   2224 0.47700000  12.010000   ; qtot -68.481300
 2225          O     70      G     O6   2225 -0.55970000  16.000000   ; qtot -69.041000
 2226         NA     70      G     N1   2226 -0.56060000  14.010000   ; qtot -69.601600
 2227          H     70      G     H1   2227 0.42430000   1.008000   ; qtot -69.177300
 2228         CA     70      G     C2   2228 0.76570000  12.010000   ; qtot -68.411600
 2229         N2     70      G     N2   2229 -1.01580000  14.010000   ; qtot -69.427400
 2230          H     70      G    H21   2230 0.46070000   1.008000   ; qtot -68.966700
 2231          H     70      G    H22   2231 0.46070000   1.008000   ; qtot -68.506000
 2232         NC     70      G     N3   2232 -0.63230000  14.010000   ; qtot -69.138300
 2233         CB     70      G     C4   2233 0.12220000  12.010000   ; qtot -69.016100
 2234         CT     70      G    C3'   2234 0.20220000  12.010000   ; qtot -68.813900
 2235         H1     70      G    H3'   2235 0.06150000   1.008000   ; qtot -68.752400
 2236         CT     70      G    C2'   2236 0.06700000  12.010000   ; qtot -68.685400
 2237         H1     70      G    H2'   2237 0.09720000   1.008000   ; qtot -68.588200
 2238         OH     70      G    O2'   2238 -0.61390000  16.000000   ; qtot -69.202100
 2239         HO     70      G   HO2'   2239 0.41860000   1.008000   ; qtot -68.783500
 2240         OR     70      G    O3'   2240 -0.52460000  16.000000   ; qtot -69.308100
; residue   71 U rtp U q -1.0
 2241          P     71      U      P   2241 1.16620000  30.970000   ; qtot -68.141900
 2242         OQ     71      U    OP1   2242 -0.77600000  16.000000   ; qtot -68.917900
 2243         OQ     71      U    OP2   2243 -0.77600000  16.000000   ; qtot -69.693900
 2244         OR     71      U    O5'   2244 -0.49890000  16.000000   ; qtot -70.192800
 2245         CI     71      U    C5'   2245 0.05580000  12.010000   ; qtot -70.137000
 2246         H1     71      U    H5'   2246 0.06790000   1.008000   ; qtot -70.069100
 2247         H1     71      U   H5''   2247 0.06790000   1.008000   ; qtot -70.001200
 2248         CT     71      U    C4'   2248 0.10650000  12.010000   ; qtot -69.894700
 2249         H1     71      U    H4'   2249 0.11740000   1.008000   ; qtot -69.777300
 2250         OS     71      U    O4'   2250 -0.35480000  16.000000   ; qtot -70.132100
 2251         CT     71      U    C1'   2251 0.06740000  12.010000   ; qtot -70.064700
 2252         H2     71      U    H1'   2252 0.18240000   1.008000   ; qtot -69.882300
 2253         N*     71      U     N1   2253 0.04180000  14.010000   ; qtot -69.840500
 2254         CS     71      U     C6   2254 -0.11260000  12.010000   ; qtot -69.953100
 2255         H4     71      U     H6   2255 0.21880000   1.008000   ; qtot -69.734300
 2256         CS     71      U     C5   2256 -0.36350000  12.010000   ; qtot -70.097800
 2257         HA     71      U     H5   2257 0.18110000   1.008000   ; qtot -69.916700
 2258          C     71      U     C4   2258 0.59520000  12.010000   ; qtot -69.321500
 2259          O     71      U     O4   2259 -0.57610000  16.000000   ; qtot -69.897600
 2260         NA     71      U     N3   2260 -0.39130000  14.010000   ; qtot -70.288900
 2261          H     71      U     H3   2261 0.35180000   1.008000   ; qtot -69.937100
 2262          C     71      U     C2   2262 0.46870000  12.010000   ; qtot -69.468400
 2263          O     71      U     O2   2263 -0.54770000  16.000000   ; qtot -70.016100
 2264         CT     71      U    C3'   2264 0.20220000  12.010000   ; qtot -69.813900
 2265         H1     71      U    H3'   2265 0.06150000   1.008000   ; qtot -69.752400
 2266         CT     71      U    C2'   2266 0.06700000  12.010000   ; qtot -69.685400
 2267         H1     71      U    H2'   2267 0.09720000   1.008000   ; qtot -69.588200
 2268         OH     71      U    O2'   2268 -0.61390000  16.000000   ; qtot -70.202100
 2269         HO     71      U   HO2'   2269 0.41860000   1.008000   ; qtot -69.783500
 2270         OR     71      U    O3'   2270 -0.52460000  16.000000   ; qtot -70.308100
; residue   72 C rtp C q -1.0
 2271          P     72      C      P   2271 1.16620000  30.970000   ; qtot -69.141900
 2272         OQ     72      C    OP1   2272 -0.77600000  16.000000   ; qtot -69.917900
 2273         OQ     72      C    OP2   2273 -0.77600000  16.000000   ; qtot -70.693900
 2274         OR     72      C    O5'   2274 -0.49890000  16.000000   ; qtot -71.192800
 2275         CI     72      C    C5'   2275 0.05580000  12.010000   ; qtot -71.137000
 2276         H1     72      C    H5'   2276 0.06790000   1.008000   ; qtot -71.069100
 2277         H1     72      C   H5''   2277 0.06790000   1.008000   ; qtot -71.001200
 2278         CT     72      C    C4'   2278 0.10650000  12.010000   ; qtot -70.894700
 2279         H1     72      C    H4'   2279 0.11740000   1.008000   ; qtot -70.777300
 2280         OS     72      C    O4'   2280 -0.35480000  16.000000   ; qtot -71.132100
 2281         CT     72      C    C1'   2281 0.00660000  12.010000   ; qtot -71.125500
 2282         H2     72      C    H1'   2282 0.20290000   1.008000   ; qtot -70.922600
 2283         N*     72      C     N1   2283 -0.04840000  14.010000   ; qtot -70.971000
 2284         C4     72      C     C6   2284 0.00530000  12.010000   ; qtot -70.965700
 2285         H4     72      C     H6   2285 0.19580000   1.008000   ; qtot -70.769900
 2286         C4     72      C     C5   2286 -0.52150000  12.010000   ; qtot -71.291400
 2287         HA     72      C     H5   2287 0.19280000   1.008000   ; qtot -71.098600
 2288         CA     72      C     C4   2288 0.81850000  12.010000   ; qtot -70.280100
 2289         N2     72      C     N4   2289 -0.87160000  14.010000   ; qtot -71.151700
 2290          H     72      C    H41   2290 0.38270000   1.008000   ; qtot -70.769000
 2291          H     72      C    H42   2291 0.38270000   1.008000   ; qtot -70.386300
 2292         NC     72      C     N3   2292 -0.75840000  14.010000   ; qtot -71.144700
 2293          C     72      C     C2   2293 0.75380000  12.010000   ; qtot -70.390900
 2294          O     72      C     O2   2294 -0.62520000  16.000000   ; qtot -71.016100
 2295         CT     72      C    C3'   2295 0.20220000  12.010000   ; qtot -70.813900
 2296         H1     72      C    H3'   2296 0.06150000   1.008000   ; qtot -70.752400
 2297         CT     72      C    C2'   2297 0.06700000  12.010000   ; qtot -70.685400
 2298         H1     72      C    H2'   2298 0.09720000   1.008000   ; qtot -70.588200
 2299         OH     72      C    O2'   2299 -0.61390000  16.000000   ; qtot -71.202100
 2300         HO     72      C   HO2'   2300 0.41860000   1.008000   ; qtot -70.783500
 2301         OR     72      C    O3'   2301 -0.52460000  16.000000   ; qtot -71.308100
; residue   73 G rtp G q -1.0
 2302          P     73      G      P   2302 1.16620000  30.970000   ; qtot -70.141900
 2303         OQ     73      G    OP1   2303 -0.77600000  16.000000   ; qtot -70.917900
 2304         OQ     73      G    OP2   2304 -0.77600000  16.000000   ; qtot -71.693900
 2305         OR     73      G    O5'   2305 -0.49890000  16.000000   ; qtot -72.192800
 2306         CI     73      G    C5'   2306 0.05580000  12.010000   ; qtot -72.137000
 2307         H1     73      G    H5'   2307 0.06790000   1.008000   ; qtot -72.069100
 2308         H1     73      G   H5''   2308 0.06790000   1.008000   ; qtot -72.001200
 2309         CT     73      G    C4'   2309 0.10650000  12.010000   ; qtot -71.894700
 2310         H1     73      G    H4'   2310 0.11740000   1.008000   ; qtot -71.777300
 2311         OS     73      G    O4'   2311 -0.35480000  16.000000   ; qtot -72.132100
 2312         CT     73      G    C1'   2312 0.01910000  12.010000   ; qtot -72.113000
 2313         H2     73      G    H1'   2313 0.20060000   1.008000   ; qtot -71.912400
 2314         NR     73      G     N9   2314 0.04920000  14.010000   ; qtot -71.863200
 2315         CP     73      G     C8   2315 0.13740000  12.010000   ; qtot -71.725800
 2316         H5     73      G     H8   2316 0.16400000   1.008000   ; qtot -71.561800
 2317         NB     73      G     N7   2317 -0.57090000  14.010000   ; qtot -72.132700
 2318         CB     73      G     C5   2318 0.17440000  12.010000   ; qtot -71.958300
 2319          C     73      G     C6   2319 0.47700000  12.010000   ; qtot -71.481300
 2320          O     73      G     O6   2320 -0.55970000  16.000000   ; qtot -72.041000
 2321         NA     73      G     N1   2321 -0.56060000  14.010000   ; qtot -72.601600
 2322          H     73      G     H1   2322 0.42430000   1.008000   ; qtot -72.177300
 2323         CA     73      G     C2   2323 0.76570000  12.010000   ; qtot -71.411600
 2324         N2     73      G     N2   2324 -1.01580000  14.010000   ; qtot -72.427400
 2325          H     73      G    H21   2325 0.46070000   1.008000   ; qtot -71.966700
 2326          H     73      G    H22   2326 0.46070000   1.008000   ; qtot -71.506000
 2327         NC     73      G     N3   2327 -0.63230000  14.010000   ; qtot -72.138300
 2328         CB     73      G     C4   2328 0.12220000  12.010000   ; qtot -72.016100
 2329         CT     73      G    C3'   2329 0.20220000  12.010000   ; qtot -71.813900
 2330         H1     73      G    H3'   2330 0.06150000   1.008000   ; qtot -71.752400
 2331         CT     73      G    C2'   2331 0.06700000  12.010000   ; qtot -71.685400
 2332         H1     73      G    H2'   2332 0.09720000   1.008000   ; qtot -71.588200
 2333         OH     73      G    O2'   2333 -0.61390000  16.000000   ; qtot -72.202100
 2334         HO     73      G   HO2'   2334 0.41860000   1.008000   ; qtot -71.783500
 2335         OR     73      G    O3'   2335 -0.52460000  16.000000   ; qtot -72.308100
; residue   74 U rtp U q -1.0
 2336          P     74      U      P   2336 1.16620000  30.970000   ; qtot -71.141900
 2337         OQ     74      U    OP1   2337 -0.77600000  16.000000   ; qtot -71.917900
 2338         OQ     74      U    OP2   2338 -0.77600000  16.000000   ; qtot -72.693900
 2339         OR     74      U    O5'   2339 -0.49890000  16.000000   ; qtot -73.192800
 2340         CI     74      U    C5'   2340 0.05580000  12.010000   ; qtot -73.137000
 2341         H1     74      U    H5'   2341 0.06790000   1.008000   ; qtot -73.069100
 2342         H1     74      U   H5''   2342 0.06790000   1.008000   ; qtot -73.001200
 2343         CT     74      U    C4'   2343 0.10650000  12.010000   ; qtot -72.894700
 2344         H1     74      U    H4'   2344 0.11740000   1.008000   ; qtot -72.777300
 2345         OS     74      U    O4'   2345 -0.35480000  16.000000   ; qtot -73.132100
 2346         CT     74      U    C1'   2346 0.06740000  12.010000   ; qtot -73.064700
 2347         H2     74      U    H1'   2347 0.18240000   1.008000   ; qtot -72.882300
 2348         N*     74      U     N1   2348 0.04180000  14.010000   ; qtot -72.840500
 2349         CS     74      U     C6   2349 -0.11260000  12.010000   ; qtot -72.953100
 2350         H4     74      U     H6   2350 0.21880000   1.008000   ; qtot -72.734300
 2351         CS     74      U     C5   2351 -0.36350000  12.010000   ; qtot -73.097800
 2352         HA     74      U     H5   2352 0.18110000   1.008000   ; qtot -72.916700
 2353          C     74      U     C4   2353 0.59520000  12.010000   ; qtot -72.321500
 2354          O     74      U     O4   2354 -0.57610000  16.000000   ; qtot -72.897600
 2355         NA     74      U     N3   2355 -0.39130000  14.010000   ; qtot -73.288900
 2356          H     74      U     H3   2356 0.35180000   1.008000   ; qtot -72.937100
 2357          C     74      U     C2   2357 0.46870000  12.010000   ; qtot -72.468400
 2358          O     74      U     O2   2358 -0.54770000  16.000000   ; qtot -73.016100
 2359         CT     74      U    C3'   2359 0.20220000  12.010000   ; qtot -72.813900
 2360         H1     74      U    H3'   2360 0.06150000   1.008000   ; qtot -72.752400
 2361         CT     74      U    C2'   2361 0.06700000  12.010000   ; qtot -72.685400
 2362         H1     74      U    H2'   2362 0.09720000   1.008000   ; qtot -72.588200
 2363         OH     74      U    O2'   2363 -0.61390000  16.000000   ; qtot -73.202100
 2364         HO     74      U   HO2'   2364 0.41860000   1.008000   ; qtot -72.783500
 2365         OR     74      U    O3'   2365 -0.52460000  16.000000   ; qtot -73.308100
; residue   75 A rtp A q -1.0
 2366          P     75      A      P   2366 1.16620000  30.970000   ; qtot -72.141900
 2367         OQ     75      A    OP1   2367 -0.77600000  16.000000   ; qtot -72.917900
 2368         OQ     75      A    OP2   2368 -0.77600000  16.000000   ; qtot -73.693900
 2369         OR     75      A    O5'   2369 -0.49890000  16.000000   ; qtot -74.192800
 2370         CI     75      A    C5'   2370 0.05580000  12.010000   ; qtot -74.137000
 2371         H1     75      A    H5'   2371 0.06790000   1.008000   ; qtot -74.069100
 2372         H1     75      A   H5''   2372 0.06790000   1.008000   ; qtot -74.001200
 2373         CT     75      A    C4'   2373 0.10650000  12.010000   ; qtot -73.894700
 2374         H1     75      A    H4'   2374 0.11740000   1.008000   ; qtot -73.777300
 2375         OS     75      A    O4'   2375 -0.35480000  16.000000   ; qtot -74.132100
 2376         CT     75      A    C1'   2376 0.03940000  12.010000   ; qtot -74.092700
 2377         H2     75      A    H1'   2377 0.20070000   1.008000   ; qtot -73.892000
 2378         NR     75      A     N9   2378 -0.02510000  14.010000   ; qtot -73.917100
 2379         C5     75      A     C8   2379 0.20060000  12.010000   ; qtot -73.716500
 2380         H5     75      A     H8   2380 0.15530000   1.008000   ; qtot -73.561200
 2381         NB     75      A     N7   2381 -0.60730000  14.010000   ; qtot -74.168500
 2382         CE     75      A     C5   2382 0.05150000  12.010000   ; qtot -74.117000
 2383         CF     75      A     C6   2383 0.70090000  12.010000   ; qtot -73.416100
 2384         N2     75      A     N6   2384 -1.00880000  14.010000   ; qtot -74.424900
 2385          H     75      A    H61   2385 0.47380000   1.008000   ; qtot -73.951100
 2386          H     75      A    H62   2386 0.47380000   1.008000   ; qtot -73.477300
 2387         ND     75      A     N1   2387 -0.79690000  14.010000   ; qtot -74.274200
 2388         CQ     75      A     C2   2388 0.58750000  12.010000   ; qtot -73.686700
 2389         H5     75      A     H2   2389 0.06500000   1.008000   ; qtot -73.621700
 2390         ND     75      A     N3   2390 -0.69970000  14.010000   ; qtot -74.321400
 2391         CE     75      A     C4   2391 0.30530000  12.010000   ; qtot -74.016100
 2392         CT     75      A    C3'   2392 0.20220000  12.010000   ; qtot -73.813900
 2393         H1     75      A    H3'   2393 0.06150000   1.008000   ; qtot -73.752400
 2394         CT     75      A    C2'   2394 0.06700000  12.010000   ; qtot -73.685400
 2395         H1     75      A    H2'   2395 0.09720000   1.008000   ; qtot -73.588200
 2396         OH     75      A    O2'   2396 -0.61390000  16.000000   ; qtot -74.202100
 2397         HO     75      A   HO2'   2397 0.41860000   1.008000   ; qtot -73.783500
 2398         OR     75      A    O3'   2398 -0.52460000  16.000000   ; qtot -74.308100
; residue   76 U rtp U q -1.0
 2399          P     76      U      P   2399 1.16620000  30.970000   ; qtot -73.141900
 2400         OQ     76      U    OP1   2400 -0.77600000  16.000000   ; qtot -73.917900
 2401         OQ     76      U    OP2   2401 -0.77600000  16.000000   ; qtot -74.693900
 2402         OR     76      U    O5'   2402 -0.49890000  16.000000   ; qtot -75.192800
 2403         CI     76      U    C5'   2403 0.05580000  12.010000   ; qtot -75.137000
 2404         H1     76      U    H5'   2404 0.06790000   1.008000   ; qtot -75.069100
 2405         H1     76      U   H5''   2405 0.06790000   1.008000   ; qtot -75.001200
 2406         CT     76      U    C4'   2406 0.10650000  12.010000   ; qtot -74.894700
 2407         H1     76      U    H4'   2407 0.11740000   1.008000   ; qtot -74.777300
 2408         OS     76      U    O4'   2408 -0.35480000  16.000000   ; qtot -75.132100
 2409         CT     76      U    C1'   2409 0.06740000  12.010000   ; qtot -75.064700
 2410         H2     76      U    H1'   2410 0.18240000   1.008000   ; qtot -74.882300
 2411         N*     76      U     N1   2411 0.04180000  14.010000   ; qtot -74.840500
 2412         CS     76      U     C6   2412 -0.11260000  12.010000   ; qtot -74.953100
 2413         H4     76      U     H6   2413 0.21880000   1.008000   ; qtot -74.734300
 2414         CS     76      U     C5   2414 -0.36350000  12.010000   ; qtot -75.097800
 2415         HA     76      U     H5   2415 0.18110000   1.008000   ; qtot -74.916700
 2416          C     76      U     C4   2416 0.59520000  12.010000   ; qtot -74.321500
 2417          O     76      U     O4   2417 -0.57610000  16.000000   ; qtot -74.897600
 2418         NA     76      U     N3   2418 -0.39130000  14.010000   ; qtot -75.288900
 2419          H     76      U     H3   2419 0.35180000   1.008000   ; qtot -74.937100
 2420          C     76      U     C2   2420 0.46870000  12.010000   ; qtot -74.468400
 2421          O     76      U     O2   2421 -0.54770000  16.000000   ; qtot -75.016100
 2422         CT     76      U    C3'   2422 0.20220000  12.010000   ; qtot -74.813900
 2423         H1     76      U    H3'   2423 0.06150000   1.008000   ; qtot -74.752400
 2424         CT     76      U    C2'   2424 0.06700000  12.010000   ; qtot -74.685400
 2425         H1     76      U    H2'   2425 0.09720000   1.008000   ; qtot -74.588200
 2426         OH     76      U    O2'   2426 -0.61390000  16.000000   ; qtot -75.202100
 2427         HO     76      U   HO2'   2427 0.41860000   1.008000   ; qtot -74.783500
 2428         OR     76      U    O3'   2428 -0.52460000  16.000000   ; qtot -75.308100
; residue   77 A rtp A q -1.0
 2429          P     77      A      P   2429 1.16620000  30.970000   ; qtot -74.141900
 2430         OQ     77      A    OP1   2430 -0.77600000  16.000000   ; qtot -74.917900
 2431         OQ     77      A    OP2   2431 -0.77600000  16.000000   ; qtot -75.693900
 2432         OR     77      A    O5'   2432 -0.49890000  16.000000   ; qtot -76.192800
 2433         CI     77      A    C5'   2433 0.05580000  12.010000   ; qtot -76.137000
 2434         H1     77      A    H5'   2434 0.06790000   1.008000   ; qtot -76.069100
 2435         H1     77      A   H5''   2435 0.06790000   1.008000   ; qtot -76.001200
 2436         CT     77      A    C4'   2436 0.10650000  12.010000   ; qtot -75.894700
 2437         H1     77      A    H4'   2437 0.11740000   1.008000   ; qtot -75.777300
 2438         OS     77      A    O4'   2438 -0.35480000  16.000000   ; qtot -76.132100
 2439         CT     77      A    C1'   2439 0.03940000  12.010000   ; qtot -76.092700
 2440         H2     77      A    H1'   2440 0.20070000   1.008000   ; qtot -75.892000
 2441         NR     77      A     N9   2441 -0.02510000  14.010000   ; qtot -75.917100
 2442         C5     77      A     C8   2442 0.20060000  12.010000   ; qtot -75.716500
 2443         H5     77      A     H8   2443 0.15530000   1.008000   ; qtot -75.561200
 2444         NB     77      A     N7   2444 -0.60730000  14.010000   ; qtot -76.168500
 2445         CE     77      A     C5   2445 0.05150000  12.010000   ; qtot -76.117000
 2446         CF     77      A     C6   2446 0.70090000  12.010000   ; qtot -75.416100
 2447         N2     77      A     N6   2447 -1.00880000  14.010000   ; qtot -76.424900
 2448          H     77      A    H61   2448 0.47380000   1.008000   ; qtot -75.951100
 2449          H     77      A    H62   2449 0.47380000   1.008000   ; qtot -75.477300
 2450         ND     77      A     N1   2450 -0.79690000  14.010000   ; qtot -76.274200
 2451         CQ     77      A     C2   2451 0.58750000  12.010000   ; qtot -75.686700
 2452         H5     77      A     H2   2452 0.06500000   1.008000   ; qtot -75.621700
 2453         ND     77      A     N3   2453 -0.69970000  14.010000   ; qtot -76.321400
 2454         CE     77      A     C4   2454 0.30530000  12.010000   ; qtot -76.016100
 2455         CT     77      A    C3'   2455 0.20220000  12.010000   ; qtot -75.813900
 2456         H1     77      A    H3'   2456 0.06150000   1.008000   ; qtot -75.752400
 2457         CT     77      A    C2'   2457 0.06700000  12.010000   ; qtot -75.685400
 2458         H1     77      A    H2'   2458 0.09720000   1.008000   ; qtot -75.588200
 2459         OH     77      A    O2'   2459 -0.61390000  16.000000   ; qtot -76.202100
 2460         HO     77      A   HO2'   2460 0.41860000   1.008000   ; qtot -75.783500
 2461         OR     77      A    O3'   2461 -0.52460000  16.000000   ; qtot -76.308100
; residue   78 C rtp C q -1.0
 2462          P     78      C      P   2462 1.16620000  30.970000   ; qtot -75.141900
 2463         OQ     78      C    OP1   2463 -0.77600000  16.000000   ; qtot -75.917900
 2464         OQ     78      C    OP2   2464 -0.77600000  16.000000   ; qtot -76.693900
 2465         OR     78      C    O5'   2465 -0.49890000  16.000000   ; qtot -77.192800
 2466         CI     78      C    C5'   2466 0.05580000  12.010000   ; qtot -77.137000
 2467         H1     78      C    H5'   2467 0.06790000   1.008000   ; qtot -77.069100
 2468         H1     78      C   H5''   2468 0.06790000   1.008000   ; qtot -77.001200
 2469         CT     78      C    C4'   2469 0.10650000  12.010000   ; qtot -76.894700
 2470         H1     78      C    H4'   2470 0.11740000   1.008000   ; qtot -76.777300
 2471         OS     78      C    O4'   2471 -0.35480000  16.000000   ; qtot -77.132100
 2472         CT     78      C    C1'   2472 0.00660000  12.010000   ; qtot -77.125500
 2473         H2     78      C    H1'   2473 0.20290000   1.008000   ; qtot -76.922600
 2474         N*     78      C     N1   2474 -0.04840000  14.010000   ; qtot -76.971000
 2475         C4     78      C     C6   2475 0.00530000  12.010000   ; qtot -76.965700
 2476         H4     78      C     H6   2476 0.19580000   1.008000   ; qtot -76.769900
 2477         C4     78      C     C5   2477 -0.52150000  12.010000   ; qtot -77.291400
 2478         HA     78      C     H5   2478 0.19280000   1.008000   ; qtot -77.098600
 2479         CA     78      C     C4   2479 0.81850000  12.010000   ; qtot -76.280100
 2480         N2     78      C     N4   2480 -0.87160000  14.010000   ; qtot -77.151700
 2481          H     78      C    H41   2481 0.38270000   1.008000   ; qtot -76.769000
 2482          H     78      C    H42   2482 0.38270000   1.008000   ; qtot -76.386300
 2483         NC     78      C     N3   2483 -0.75840000  14.010000   ; qtot -77.144700
 2484          C     78      C     C2   2484 0.75380000  12.010000   ; qtot -76.390900
 2485          O     78      C     O2   2485 -0.62520000  16.000000   ; qtot -77.016100
 2486         CT     78      C    C3'   2486 0.20220000  12.010000   ; qtot -76.813900
 2487         H1     78      C    H3'   2487 0.06150000   1.008000   ; qtot -76.752400
 2488         CT     78      C    C2'   2488 0.06700000  12.010000   ; qtot -76.685400
 2489         H1     78      C    H2'   2489 0.09720000   1.008000   ; qtot -76.588200
 2490         OH     78      C    O2'   2490 -0.61390000  16.000000   ; qtot -77.202100
 2491         HO     78      C   HO2'   2491 0.41860000   1.008000   ; qtot -76.783500
 2492         OR     78      C    O3'   2492 -0.52460000  16.000000   ; qtot -77.308100
; residue   79 A rtp A q -1.0
 2493          P     79      A      P   2493 1.16620000  30.970000   ; qtot -76.141900
 2494         OQ     79      A    OP1   2494 -0.77600000  16.000000   ; qtot -76.917900
 2495         OQ     79      A    OP2   2495 -0.77600000  16.000000   ; qtot -77.693900
 2496         OR     79      A    O5'   2496 -0.49890000  16.000000   ; qtot -78.192800
 2497         CI     79      A    C5'   2497 0.05580000  12.010000   ; qtot -78.137000
 2498         H1     79      A    H5'   2498 0.06790000   1.008000   ; qtot -78.069100
 2499         H1     79      A   H5''   2499 0.06790000   1.008000   ; qtot -78.001200
 2500         CT     79      A    C4'   2500 0.10650000  12.010000   ; qtot -77.894700
 2501         H1     79      A    H4'   2501 0.11740000   1.008000   ; qtot -77.777300
 2502         OS     79      A    O4'   2502 -0.35480000  16.000000   ; qtot -78.132100
 2503         CT     79      A    C1'   2503 0.03940000  12.010000   ; qtot -78.092700
 2504         H2     79      A    H1'   2504 0.20070000   1.008000   ; qtot -77.892000
 2505         NR     79      A     N9   2505 -0.02510000  14.010000   ; qtot -77.917100
 2506         C5     79      A     C8   2506 0.20060000  12.010000   ; qtot -77.716500
 2507         H5     79      A     H8   2507 0.15530000   1.008000   ; qtot -77.561200
 2508         NB     79      A     N7   2508 -0.60730000  14.010000   ; qtot -78.168500
 2509         CE     79      A     C5   2509 0.05150000  12.010000   ; qtot -78.117000
 2510         CF     79      A     C6   2510 0.70090000  12.010000   ; qtot -77.416100
 2511         N2     79      A     N6   2511 -1.00880000  14.010000   ; qtot -78.424900
 2512          H     79      A    H61   2512 0.47380000   1.008000   ; qtot -77.951100
 2513          H     79      A    H62   2513 0.47380000   1.008000   ; qtot -77.477300
 2514         ND     79      A     N1   2514 -0.79690000  14.010000   ; qtot -78.274200
 2515         CQ     79      A     C2   2515 0.58750000  12.010000   ; qtot -77.686700
 2516         H5     79      A     H2   2516 0.06500000   1.008000   ; qtot -77.621700
 2517         ND     79      A     N3   2517 -0.69970000  14.010000   ; qtot -78.321400
 2518         CE     79      A     C4   2518 0.30530000  12.010000   ; qtot -78.016100
 2519         CT     79      A    C3'   2519 0.20220000  12.010000   ; qtot -77.813900
 2520         H1     79      A    H3'   2520 0.06150000   1.008000   ; qtot -77.752400
 2521         CT     79      A    C2'   2521 0.06700000  12.010000   ; qtot -77.685400
 2522         H1     79      A    H2'   2522 0.09720000   1.008000   ; qtot -77.588200
 2523         OH     79      A    O2'   2523 -0.61390000  16.000000   ; qtot -78.202100
 2524         HO     79      A   HO2'   2524 0.41860000   1.008000   ; qtot -77.783500
 2525         OR     79      A    O3'   2525 -0.52460000  16.000000   ; qtot -78.308100
; residue   80 G rtp G q -1.0
 2526          P     80      G      P   2526 1.16620000  30.970000   ; qtot -77.141900
 2527         OQ     80      G    OP1   2527 -0.77600000  16.000000   ; qtot -77.917900
 2528         OQ     80      G    OP2   2528 -0.77600000  16.000000   ; qtot -78.693900
 2529         OR     80      G    O5'   2529 -0.49890000  16.000000   ; qtot -79.192800
 2530         CI     80      G    C5'   2530 0.05580000  12.010000   ; qtot -79.137000
 2531         H1     80      G    H5'   2531 0.06790000   1.008000   ; qtot -79.069100
 2532         H1     80      G   H5''   2532 0.06790000   1.008000   ; qtot -79.001200
 2533         CT     80      G    C4'   2533 0.10650000  12.010000   ; qtot -78.894700
 2534         H1     80      G    H4'   2534 0.11740000   1.008000   ; qtot -78.777300
 2535         OS     80      G    O4'   2535 -0.35480000  16.000000   ; qtot -79.132100
 2536         CT     80      G    C1'   2536 0.01910000  12.010000   ; qtot -79.113000
 2537         H2     80      G    H1'   2537 0.20060000   1.008000   ; qtot -78.912400
 2538         NR     80      G     N9   2538 0.04920000  14.010000   ; qtot -78.863200
 2539         CP     80      G     C8   2539 0.13740000  12.010000   ; qtot -78.725800
 2540         H5     80      G     H8   2540 0.16400000   1.008000   ; qtot -78.561800
 2541         NB     80      G     N7   2541 -0.57090000  14.010000   ; qtot -79.132700
 2542         CB     80      G     C5   2542 0.17440000  12.010000   ; qtot -78.958300
 2543          C     80      G     C6   2543 0.47700000  12.010000   ; qtot -78.481300
 2544          O     80      G     O6   2544 -0.55970000  16.000000   ; qtot -79.041000
 2545         NA     80      G     N1   2545 -0.56060000  14.010000   ; qtot -79.601600
 2546          H     80      G     H1   2546 0.42430000   1.008000   ; qtot -79.177300
 2547         CA     80      G     C2   2547 0.76570000  12.010000   ; qtot -78.411600
 2548         N2     80      G     N2   2548 -1.01580000  14.010000   ; qtot -79.427400
 2549          H     80      G    H21   2549 0.46070000   1.008000   ; qtot -78.966700
 2550          H     80      G    H22   2550 0.46070000   1.008000   ; qtot -78.506000
 2551         NC     80      G     N3   2551 -0.63230000  14.010000   ; qtot -79.138300
 2552         CB     80      G     C4   2552 0.12220000  12.010000   ; qtot -79.016100
 2553         CT     80      G    C3'   2553 0.20220000  12.010000   ; qtot -78.813900
 2554         H1     80      G    H3'   2554 0.06150000   1.008000   ; qtot -78.752400
 2555         CT     80      G    C2'   2555 0.06700000  12.010000   ; qtot -78.685400
 2556         H1     80      G    H2'   2556 0.09720000   1.008000   ; qtot -78.588200
 2557         OH     80      G    O2'   2557 -0.61390000  16.000000   ; qtot -79.202100
 2558         HO     80      G   HO2'   2558 0.41860000   1.008000   ; qtot -78.783500
 2559         OR     80      G    O3'   2559 -0.52460000  16.000000   ; qtot -79.308100
; residue   81 G rtp G q -1.0
 2560          P     81      G      P   2560 1.16620000  30.970000   ; qtot -78.141900
 2561         OQ     81      G    OP1   2561 -0.77600000  16.000000   ; qtot -78.917900
 2562         OQ     81      G    OP2   2562 -0.77600000  16.000000   ; qtot -79.693900
 2563         OR     81      G    O5'   2563 -0.49890000  16.000000   ; qtot -80.192800
 2564         CI     81      G    C5'   2564 0.05580000  12.010000   ; qtot -80.137000
 2565         H1     81      G    H5'   2565 0.06790000   1.008000   ; qtot -80.069100
 2566         H1     81      G   H5''   2566 0.06790000   1.008000   ; qtot -80.001200
 2567         CT     81      G    C4'   2567 0.10650000  12.010000   ; qtot -79.894700
 2568         H1     81      G    H4'   2568 0.11740000   1.008000   ; qtot -79.777300
 2569         OS     81      G    O4'   2569 -0.35480000  16.000000   ; qtot -80.132100
 2570         CT     81      G    C1'   2570 0.01910000  12.010000   ; qtot -80.113000
 2571         H2     81      G    H1'   2571 0.20060000   1.008000   ; qtot -79.912400
 2572         NR     81      G     N9   2572 0.04920000  14.010000   ; qtot -79.863200
 2573         CP     81      G     C8   2573 0.13740000  12.010000   ; qtot -79.725800
 2574         H5     81      G     H8   2574 0.16400000   1.008000   ; qtot -79.561800
 2575         NB     81      G     N7   2575 -0.57090000  14.010000   ; qtot -80.132700
 2576         CB     81      G     C5   2576 0.17440000  12.010000   ; qtot -79.958300
 2577          C     81      G     C6   2577 0.47700000  12.010000   ; qtot -79.481300
 2578          O     81      G     O6   2578 -0.55970000  16.000000   ; qtot -80.041000
 2579         NA     81      G     N1   2579 -0.56060000  14.010000   ; qtot -80.601600
 2580          H     81      G     H1   2580 0.42430000   1.008000   ; qtot -80.177300
 2581         CA     81      G     C2   2581 0.76570000  12.010000   ; qtot -79.411600
 2582         N2     81      G     N2   2582 -1.01580000  14.010000   ; qtot -80.427400
 2583          H     81      G    H21   2583 0.46070000   1.008000   ; qtot -79.966700
 2584          H     81      G    H22   2584 0.46070000   1.008000   ; qtot -79.506000
 2585         NC     81      G     N3   2585 -0.63230000  14.010000   ; qtot -80.138300
 2586         CB     81      G     C4   2586 0.12220000  12.010000   ; qtot -80.016100
 2587         CT     81      G    C3'   2587 0.20220000  12.010000   ; qtot -79.813900
 2588         H1     81      G    H3'   2588 0.06150000   1.008000   ; qtot -79.752400
 2589         CT     81      G    C2'   2589 0.06700000  12.010000   ; qtot -79.685400
 2590         H1     81      G    H2'   2590 0.09720000   1.008000   ; qtot -79.588200
 2591         OH     81      G    O2'   2591 -0.61390000  16.000000   ; qtot -80.202100
 2592         HO     81      G   HO2'   2592 0.41860000   1.008000   ; qtot -79.783500
 2593         OR     81      G    O3'   2593 -0.52460000  16.000000   ; qtot -80.308100
; residue   82 G rtp G q -1.0
 2594          P     82      G      P   2594 1.16620000  30.970000   ; qtot -79.141900
 2595         OQ     82      G    OP1   2595 -0.77600000  16.000000   ; qtot -79.917900
 2596         OQ     82      G    OP2   2596 -0.77600000  16.000000   ; qtot -80.693900
 2597         OR     82      G    O5'   2597 -0.49890000  16.000000   ; qtot -81.192800
 2598         CI     82      G    C5'   2598 0.05580000  12.010000   ; qtot -81.137000
 2599         H1     82      G    H5'   2599 0.06790000   1.008000   ; qtot -81.069100
 2600         H1     82      G   H5''   2600 0.06790000   1.008000   ; qtot -81.001200
 2601         CT     82      G    C4'   2601 0.10650000  12.010000   ; qtot -80.894700
 2602         H1     82      G    H4'   2602 0.11740000   1.008000   ; qtot -80.777300
 2603         OS     82      G    O4'   2603 -0.35480000  16.000000   ; qtot -81.132100
 2604         CT     82      G    C1'   2604 0.01910000  12.010000   ; qtot -81.113000
 2605         H2     82      G    H1'   2605 0.20060000   1.008000   ; qtot -80.912400
 2606         NR     82      G     N9   2606 0.04920000  14.010000   ; qtot -80.863200
 2607         CP     82      G     C8   2607 0.13740000  12.010000   ; qtot -80.725800
 2608         H5     82      G     H8   2608 0.16400000   1.008000   ; qtot -80.561800
 2609         NB     82      G     N7   2609 -0.57090000  14.010000   ; qtot -81.132700
 2610         CB     82      G     C5   2610 0.17440000  12.010000   ; qtot -80.958300
 2611          C     82      G     C6   2611 0.47700000  12.010000   ; qtot -80.481300
 2612          O     82      G     O6   2612 -0.55970000  16.000000   ; qtot -81.041000
 2613         NA     82      G     N1   2613 -0.56060000  14.010000   ; qtot -81.601600
 2614          H     82      G     H1   2614 0.42430000   1.008000   ; qtot -81.177300
 2615         CA     82      G     C2   2615 0.76570000  12.010000   ; qtot -80.411600
 2616         N2     82      G     N2   2616 -1.01580000  14.010000   ; qtot -81.427400
 2617          H     82      G    H21   2617 0.46070000   1.008000   ; qtot -80.966700
 2618          H     82      G    H22   2618 0.46070000   1.008000   ; qtot -80.506000
 2619         NC     82      G     N3   2619 -0.63230000  14.010000   ; qtot -81.138300
 2620         CB     82      G     C4   2620 0.12220000  12.010000   ; qtot -81.016100
 2621         CT     82      G    C3'   2621 0.20220000  12.010000   ; qtot -80.813900
 2622         H1     82      G    H3'   2622 0.06150000   1.008000   ; qtot -80.752400
 2623         CT     82      G    C2'   2623 0.06700000  12.010000   ; qtot -80.685400
 2624         H1     82      G    H2'   2624 0.09720000   1.008000   ; qtot -80.588200
 2625         OH     82      G    O2'   2625 -0.61390000  16.000000   ; qtot -81.202100
 2626         HO     82      G   HO2'   2626 0.41860000   1.008000   ; qtot -80.783500
 2627         OR     82      G    O3'   2627 -0.52460000  16.000000   ; qtot -81.308100
; residue   83 C rtp C q -1.0
 2628          P     83      C      P   2628 1.16620000  30.970000   ; qtot -80.141900
 2629         OQ     83      C    OP1   2629 -0.77600000  16.000000   ; qtot -80.917900
 2630         OQ     83      C    OP2   2630 -0.77600000  16.000000   ; qtot -81.693900
 2631         OR     83      C    O5'   2631 -0.49890000  16.000000   ; qtot -82.192800
 2632         CI     83      C    C5'   2632 0.05580000  12.010000   ; qtot -82.137000
 2633         H1     83      C    H5'   2633 0.06790000   1.008000   ; qtot -82.069100
 2634         H1     83      C   H5''   2634 0.06790000   1.008000   ; qtot -82.001200
 2635         CT     83      C    C4'   2635 0.10650000  12.010000   ; qtot -81.894700
 2636         H1     83      C    H4'   2636 0.11740000   1.008000   ; qtot -81.777300
 2637         OS     83      C    O4'   2637 -0.35480000  16.000000   ; qtot -82.132100
 2638         CT     83      C    C1'   2638 0.00660000  12.010000   ; qtot -82.125500
 2639         H2     83      C    H1'   2639 0.20290000   1.008000   ; qtot -81.922600
 2640         N*     83      C     N1   2640 -0.04840000  14.010000   ; qtot -81.971000
 2641         C4     83      C     C6   2641 0.00530000  12.010000   ; qtot -81.965700
 2642         H4     83      C     H6   2642 0.19580000   1.008000   ; qtot -81.769900
 2643         C4     83      C     C5   2643 -0.52150000  12.010000   ; qtot -82.291400
 2644         HA     83      C     H5   2644 0.19280000   1.008000   ; qtot -82.098600
 2645         CA     83      C     C4   2645 0.81850000  12.010000   ; qtot -81.280100
 2646         N2     83      C     N4   2646 -0.87160000  14.010000   ; qtot -82.151700
 2647          H     83      C    H41   2647 0.38270000   1.008000   ; qtot -81.769000
 2648          H     83      C    H42   2648 0.38270000   1.008000   ; qtot -81.386300
 2649         NC     83      C     N3   2649 -0.75840000  14.010000   ; qtot -82.144700
 2650          C     83      C     C2   2650 0.75380000  12.010000   ; qtot -81.390900
 2651          O     83      C     O2   2651 -0.62520000  16.000000   ; qtot -82.016100
 2652         CT     83      C    C3'   2652 0.20220000  12.010000   ; qtot -81.813900
 2653         H1     83      C    H3'   2653 0.06150000   1.008000   ; qtot -81.752400
 2654         CT     83      C    C2'   2654 0.06700000  12.010000   ; qtot -81.685400
 2655         H1     83      C    H2'   2655 0.09720000   1.008000   ; qtot -81.588200
 2656         OH     83      C    O2'   2656 -0.61390000  16.000000   ; qtot -82.202100
 2657         HO     83      C   HO2'   2657 0.41860000   1.008000   ; qtot -81.783500
 2658         OR     83      C    O3'   2658 -0.52460000  16.000000   ; qtot -82.308100
; residue   84 U rtp U q -1.0
 2659          P     84      U      P   2659 1.16620000  30.970000   ; qtot -81.141900
 2660         OQ     84      U    OP1   2660 -0.77600000  16.000000   ; qtot -81.917900
 2661         OQ     84      U    OP2   2661 -0.77600000  16.000000   ; qtot -82.693900
 2662         OR     84      U    O5'   2662 -0.49890000  16.000000   ; qtot -83.192800
 2663         CI     84      U    C5'   2663 0.05580000  12.010000   ; qtot -83.137000
 2664         H1     84      U    H5'   2664 0.06790000   1.008000   ; qtot -83.069100
 2665         H1     84      U   H5''   2665 0.06790000   1.008000   ; qtot -83.001200
 2666         CT     84      U    C4'   2666 0.10650000  12.010000   ; qtot -82.894700
 2667         H1     84      U    H4'   2667 0.11740000   1.008000   ; qtot -82.777300
 2668         OS     84      U    O4'   2668 -0.35480000  16.000000   ; qtot -83.132100
 2669         CT     84      U    C1'   2669 0.06740000  12.010000   ; qtot -83.064700
 2670         H2     84      U    H1'   2670 0.18240000   1.008000   ; qtot -82.882300
 2671         N*     84      U     N1   2671 0.04180000  14.010000   ; qtot -82.840500
 2672         CS     84      U     C6   2672 -0.11260000  12.010000   ; qtot -82.953100
 2673         H4     84      U     H6   2673 0.21880000   1.008000   ; qtot -82.734300
 2674         CS     84      U     C5   2674 -0.36350000  12.010000   ; qtot -83.097800
 2675         HA     84      U     H5   2675 0.18110000   1.008000   ; qtot -82.916700
 2676          C     84      U     C4   2676 0.59520000  12.010000   ; qtot -82.321500
 2677          O     84      U     O4   2677 -0.57610000  16.000000   ; qtot -82.897600
 2678         NA     84      U     N3   2678 -0.39130000  14.010000   ; qtot -83.288900
 2679          H     84      U     H3   2679 0.35180000   1.008000   ; qtot -82.937100
 2680          C     84      U     C2   2680 0.46870000  12.010000   ; qtot -82.468400
 2681          O     84      U     O2   2681 -0.54770000  16.000000   ; qtot -83.016100
 2682         CT     84      U    C3'   2682 0.20220000  12.010000   ; qtot -82.813900
 2683         H1     84      U    H3'   2683 0.06150000   1.008000   ; qtot -82.752400
 2684         CT     84      U    C2'   2684 0.06700000  12.010000   ; qtot -82.685400
 2685         H1     84      U    H2'   2685 0.09720000   1.008000   ; qtot -82.588200
 2686         OH     84      U    O2'   2686 -0.61390000  16.000000   ; qtot -83.202100
 2687         HO     84      U   HO2'   2687 0.41860000   1.008000   ; qtot -82.783500
 2688         OR     84      U    O3'   2688 -0.52460000  16.000000   ; qtot -83.308100
; residue   85 U rtp U q -1.0
 2689          P     85      U      P   2689 1.16620000  30.970000   ; qtot -82.141900
 2690         OQ     85      U    OP1   2690 -0.77600000  16.000000   ; qtot -82.917900
 2691         OQ     85      U    OP2   2691 -0.77600000  16.000000   ; qtot -83.693900
 2692         OR     85      U    O5'   2692 -0.49890000  16.000000   ; qtot -84.192800
 2693         CI     85      U    C5'   2693 0.05580000  12.010000   ; qtot -84.137000
 2694         H1     85      U    H5'   2694 0.06790000   1.008000   ; qtot -84.069100
 2695         H1     85      U   H5''   2695 0.06790000   1.008000   ; qtot -84.001200
 2696         CT     85      U    C4'   2696 0.10650000  12.010000   ; qtot -83.894700
 2697         H1     85      U    H4'   2697 0.11740000   1.008000   ; qtot -83.777300
 2698         OS     85      U    O4'   2698 -0.35480000  16.000000   ; qtot -84.132100
 2699         CT     85      U    C1'   2699 0.06740000  12.010000   ; qtot -84.064700
 2700         H2     85      U    H1'   2700 0.18240000   1.008000   ; qtot -83.882300
 2701         N*     85      U     N1   2701 0.04180000  14.010000   ; qtot -83.840500
 2702         CS     85      U     C6   2702 -0.11260000  12.010000   ; qtot -83.953100
 2703         H4     85      U     H6   2703 0.21880000   1.008000   ; qtot -83.734300
 2704         CS     85      U     C5   2704 -0.36350000  12.010000   ; qtot -84.097800
 2705         HA     85      U     H5   2705 0.18110000   1.008000   ; qtot -83.916700
 2706          C     85      U     C4   2706 0.59520000  12.010000   ; qtot -83.321500
 2707          O     85      U     O4   2707 -0.57610000  16.000000   ; qtot -83.897600
 2708         NA     85      U     N3   2708 -0.39130000  14.010000   ; qtot -84.288900
 2709          H     85      U     H3   2709 0.35180000   1.008000   ; qtot -83.937100
 2710          C     85      U     C2   2710 0.46870000  12.010000   ; qtot -83.468400
 2711          O     85      U     O2   2711 -0.54770000  16.000000   ; qtot -84.016100
 2712         CT     85      U    C3'   2712 0.20220000  12.010000   ; qtot -83.813900
 2713         H1     85      U    H3'   2713 0.06150000   1.008000   ; qtot -83.752400
 2714         CT     85      U    C2'   2714 0.06700000  12.010000   ; qtot -83.685400
 2715         H1     85      U    H2'   2715 0.09720000   1.008000   ; qtot -83.588200
 2716         OH     85      U    O2'   2716 -0.61390000  16.000000   ; qtot -84.202100
 2717         HO     85      U   HO2'   2717 0.41860000   1.008000   ; qtot -83.783500
 2718         OR     85      U    O3'   2718 -0.52460000  16.000000   ; qtot -84.308100
; residue   86 U rtp U q -1.0
 2719          P     86      U      P   2719 1.16620000  30.970000   ; qtot -83.141900
 2720         OQ     86      U    OP1   2720 -0.77600000  16.000000   ; qtot -83.917900
 2721         OQ     86      U    OP2   2721 -0.77600000  16.000000   ; qtot -84.693900
 2722         OR     86      U    O5'   2722 -0.49890000  16.000000   ; qtot -85.192800
 2723         CI     86      U    C5'   2723 0.05580000  12.010000   ; qtot -85.137000
 2724         H1     86      U    H5'   2724 0.06790000   1.008000   ; qtot -85.069100
 2725         H1     86      U   H5''   2725 0.06790000   1.008000   ; qtot -85.001200
 2726         CT     86      U    C4'   2726 0.10650000  12.010000   ; qtot -84.894700
 2727         H1     86      U    H4'   2727 0.11740000   1.008000   ; qtot -84.777300
 2728         OS     86      U    O4'   2728 -0.35480000  16.000000   ; qtot -85.132100
 2729         CT     86      U    C1'   2729 0.06740000  12.010000   ; qtot -85.064700
 2730         H2     86      U    H1'   2730 0.18240000   1.008000   ; qtot -84.882300
 2731         N*     86      U     N1   2731 0.04180000  14.010000   ; qtot -84.840500
 2732         CS     86      U     C6   2732 -0.11260000  12.010000   ; qtot -84.953100
 2733         H4     86      U     H6   2733 0.21880000   1.008000   ; qtot -84.734300
 2734         CS     86      U     C5   2734 -0.36350000  12.010000   ; qtot -85.097800
 2735         HA     86      U     H5   2735 0.18110000   1.008000   ; qtot -84.916700
 2736          C     86      U     C4   2736 0.59520000  12.010000   ; qtot -84.321500
 2737          O     86      U     O4   2737 -0.57610000  16.000000   ; qtot -84.897600
 2738         NA     86      U     N3   2738 -0.39130000  14.010000   ; qtot -85.288900
 2739          H     86      U     H3   2739 0.35180000   1.008000   ; qtot -84.937100
 2740          C     86      U     C2   2740 0.46870000  12.010000   ; qtot -84.468400
 2741          O     86      U     O2   2741 -0.54770000  16.000000   ; qtot -85.016100
 2742         CT     86      U    C3'   2742 0.20220000  12.010000   ; qtot -84.813900
 2743         H1     86      U    H3'   2743 0.06150000   1.008000   ; qtot -84.752400
 2744         CT     86      U    C2'   2744 0.06700000  12.010000   ; qtot -84.685400
 2745         H1     86      U    H2'   2745 0.09720000   1.008000   ; qtot -84.588200
 2746         OH     86      U    O2'   2746 -0.61390000  16.000000   ; qtot -85.202100
 2747         HO     86      U   HO2'   2747 0.41860000   1.008000   ; qtot -84.783500
 2748         OR     86      U    O3'   2748 -0.52460000  16.000000   ; qtot -85.308100
; residue   87 U3 rtp U3 q -0.7
 2749          P     87     U3      P   2749 1.16620000  30.970000   ; qtot -84.141900
 2750         OQ     87     U3    OP1   2750 -0.77600000  16.000000   ; qtot -84.917900
 2751         OQ     87     U3    OP2   2751 -0.77600000  16.000000   ; qtot -85.693900
 2752         OR     87     U3    O5'   2752 -0.49890000  16.000000   ; qtot -86.192800
 2753         CI     87     U3    C5'   2753 0.05580000  12.010000   ; qtot -86.137000
 2754         H1     87     U3    H5'   2754 0.06790000   1.008000   ; qtot -86.069100
 2755         H1     87     U3   H5''   2755 0.06790000   1.008000   ; qtot -86.001200
 2756         CT     87     U3    C4'   2756 0.10650000  12.010000   ; qtot -85.894700
 2757         H1     87     U3    H4'   2757 0.11740000   1.008000   ; qtot -85.777300
 2758         OS     87     U3    O4'   2758 -0.35480000  16.000000   ; qtot -86.132100
 2759         CT     87     U3    C1'   2759 0.06740000  12.010000   ; qtot -86.064700
 2760         H2     87     U3    H1'   2760 0.18240000   1.008000   ; qtot -85.882300
 2761         N*     87     U3     N1   2761 0.04180000  14.010000   ; qtot -85.840500
 2762         CS     87     U3     C6   2762 -0.11260000  12.010000   ; qtot -85.953100
 2763         H4     87     U3     H6   2763 0.21880000   1.008000   ; qtot -85.734300
 2764         CS     87     U3     C5   2764 -0.36350000  12.010000   ; qtot -86.097800
 2765         HA     87     U3     H5   2765 0.18110000   1.008000   ; qtot -85.916700
 2766          C     87     U3     C4   2766 0.59520000  12.010000   ; qtot -85.321500
 2767          O     87     U3     O4   2767 -0.57610000  16.000000   ; qtot -85.897600
 2768         NA     87     U3     N3   2768 -0.39130000  14.010000   ; qtot -86.288900
 2769          H     87     U3     H3   2769 0.35180000   1.008000   ; qtot -85.937100
 2770          C     87     U3     C2   2770 0.46870000  12.010000   ; qtot -85.468400
 2771          O     87     U3     O2   2771 -0.54770000  16.000000   ; qtot -86.016100
 2772         CT     87     U3    C3'   2772 0.20220000  12.010000   ; qtot -85.813900
 2773         H1     87     U3    H3'   2773 0.06150000   1.008000   ; qtot -85.752400
 2774         CT     87     U3    C2'   2774 0.06700000  12.010000   ; qtot -85.685400
 2775         H1     87     U3    H2'   2775 0.09720000   1.008000   ; qtot -85.588200
 2776         OH     87     U3    O2'   2776 -0.61390000  16.000000   ; qtot -86.202100
 2777         HO     87     U3   HO2'   2777 0.41860000   1.008000   ; qtot -85.783500
 2778         OH     87     U3    O3'   2778 -0.65410000  16.000000   ; qtot -86.437600
 2779         HO     87     U3   HO3'   2779 0.43760000   1.008000   ; qtot -86.000000

[ bonds ]
;    ai     aj funct         c0         c1         c2         c3
     32     33     1   0.16100 192464.000000
     28     30     1   0.14100 267776.000000
     26     28     1   0.15260 259408.000000
     26     32     1   0.14100 267776.000000
     24     25     1   0.13540 385764.800000
     20     21     1   0.13400 402500.800000
     20     24     1   0.13390 404174.400000
     18     20     1   0.13810 357313.600000
     16     17     1   0.12290 476976.000000
     16     18     1   0.13880 349782.400000
     15     16     1   0.14190 374049.600000
     15     25     1   0.13700 435136.000000
     14     15     1   0.13910 346435.200000
     12     14     1   0.13040 442667.200000
     11     12     1   0.13710 368192.000000
     11     25     1   0.13740 364844.800000
      9     11     1   0.14750 282001.600000
      9     28     1   0.15260 259408.000000
      8      9     1   0.14100 267776.000000
      6      8     1   0.14100 267776.000000
      6     26     1   0.15260 259408.000000
      3      6     1   0.15260 259408.000000
      2      3     1   0.14100 267776.000000
     62     63     1   0.16100 192464.000000
     58     60     1   0.14100 267776.000000
     56     58     1   0.15260 259408.000000
     56     62     1   0.14100 267776.000000
     54     55     1   0.12290 476976.000000
     52     54     1   0.13880 349782.400000
     50     51     1   0.12290 476976.000000
     50     52     1   0.13880 349782.400000
     48     50     1   0.14440 343088.000000
     46     48     1   0.13500 459403.200000
     45     46     1   0.13650 374886.400000
     45     54     1   0.13830 354803.200000
     43     45     1   0.14750 282001.600000
     43     58     1   0.15260 259408.000000
     42     43     1   0.14100 267776.000000
     40     42     1   0.14100 267776.000000
     40     56     1   0.15260 259408.000000
     37     40     1   0.15260 259408.000000
     36     37     1   0.14100 267776.000000
     33     34     1   0.14800 439320.000000
     33     35     1   0.14800 439320.000000
     33     36     1   0.16100 192464.000000
     92     93     1   0.16100 192464.000000
     88     90     1   0.14100 267776.000000
     86     88     1   0.15260 259408.000000
     86     92     1   0.14100 267776.000000
     84     85     1   0.12290 476976.000000
     82     84     1   0.13880 349782.400000
     80     81     1   0.12290 476976.000000
     80     82     1   0.13880 349782.400000
     78     80     1   0.14440 343088.000000
     76     78     1   0.13500 459403.200000
     75     76     1   0.13650 374886.400000
     75     84     1   0.13830 354803.200000
     73     75     1   0.14750 282001.600000
     73     88     1   0.15260 259408.000000
     72     73     1   0.14100 267776.000000
     70     72     1   0.14100 267776.000000
     70     86     1   0.15260 259408.000000
     67     70     1   0.15260 259408.000000
     66     67     1   0.14100 267776.000000
     63     64     1   0.14800 439320.000000
     63     65     1   0.14800 439320.000000
     63     66     1   0.16100 192464.000000
    122    123     1   0.16100 192464.000000
    118    120     1   0.14100 267776.000000
    116    118     1   0.15260 259408.000000
    116    122     1   0.14100 267776.000000
    114    115     1   0.12290 476976.000000
    112    114     1   0.13880 349782.400000
    110    111     1   0.12290 476976.000000
    110    112     1   0.13880 349782.400000
    108    110     1   0.14440 343088.000000
    106    108     1   0.13500 459403.200000
    105    106     1   0.13650 374886.400000
    105    114     1   0.13830 354803.200000
    103    105     1   0.14750 282001.600000
    103    118     1   0.15260 259408.000000
    102    103     1   0.14100 267776.000000
    100    102     1   0.14100 267776.000000
    100    116     1   0.15260 259408.000000
     97    100     1   0.15260 259408.000000
     96     97     1   0.14100 267776.000000
     93     94     1   0.14800 439320.000000
     93     95     1   0.14800 439320.000000
     93     96     1   0.16100 192464.000000
    152    153     1   0.16100 192464.000000
    148    150     1   0.14100 267776.000000
    146    148     1   0.15260 259408.000000
    146    152     1   0.14100 267776.000000
    144    145     1   0.12290 476976.000000
    142    144     1   0.13880 349782.400000
    140    141     1   0.12290 476976.000000
    140    142     1   0.13880 349782.400000
    138    140     1   0.14440 343088.000000
    136    138     1   0.13500 459403.200000
    135    136     1   0.13650 374886.400000
    135    144     1   0.13830 354803.200000
    133    135     1   0.14750 282001.600000
    133    148     1   0.15260 259408.000000
    132    133     1   0.14100 267776.000000
    130    132     1   0.14100 267776.000000
    130    146     1   0.15260 259408.000000
    127    130     1   0.15260 259408.000000
    126    127     1   0.14100 267776.000000
    123    124     1   0.14800 439320.000000
    123    125     1   0.14800 439320.000000
    123    126     1   0.16100 192464.000000
    182    183     1   0.16100 192464.000000
    178    180     1   0.14100 267776.000000
    176    178     1   0.15260 259408.000000
    176    182     1   0.14100 267776.000000
    174    175     1   0.12290 476976.000000
    172    174     1   0.13880 349782.400000
    170    171     1   0.12290 476976.000000
    170    172     1   0.13880 349782.400000
    168    170     1   0.14440 343088.000000
    166    168     1   0.13500 459403.200000
    165    166     1   0.13650 374886.400000
    165    174     1   0.13830 354803.200000
    163    165     1   0.14750 282001.600000
    163    178     1   0.15260 259408.000000
    162    163     1   0.14100 267776.000000
    160    162     1   0.14100 267776.000000
    160    176     1   0.15260 259408.000000
    157    160     1   0.15260 259408.000000
    156    157     1   0.14100 267776.000000
    153    154     1   0.14800 439320.000000
    153    155     1   0.14800 439320.000000
    153    156     1   0.16100 192464.000000
    215    216     1   0.16100 192464.000000
    211    213     1   0.14100 267776.000000
    209    211     1   0.15260 259408.000000
    209    215     1   0.14100 267776.000000
    207    208     1   0.13540 385764.800000
    205    207     1   0.13240 420073.600000
    204    205     1   0.13240 420073.600000
    200    201     1   0.13400 402500.800000
    200    204     1   0.13390 404174.400000
    199    200     1   0.14040 392459.200000
    199    208     1   0.13700 435136.000000
    198    199     1   0.13910 346435.200000
    196    198     1   0.13040 442667.200000
    195    196     1   0.13710 368192.000000
    195    208     1   0.13740 364844.800000
    193    195     1   0.14750 282001.600000
    193    211     1   0.15260 259408.000000
    192    193     1   0.14100 267776.000000
    190    192     1   0.14100 267776.000000
    190    209     1   0.15260 259408.000000
    187    190     1   0.15260 259408.000000
    186    187     1   0.14100 267776.000000
    183    184     1   0.14800 439320.000000
    183    185     1   0.14800 439320.000000
    183    186     1   0.16100 192464.000000
    248    249     1   0.16100 192464.000000
    244    246     1   0.14100 267776.000000
    242    244     1   0.15260 259408.000000
    242    248     1   0.14100 267776.000000
    240    241     1   0.13540 385764.800000
    238    240     1   0.13240 420073.600000
    237    238     1   0.13240 420073.600000
    233    234     1   0.13400 402500.800000
    233    237     1   0.13390 404174.400000
    232    233     1   0.14040 392459.200000
    232    241     1   0.13700 435136.000000
    231    232     1   0.13910 346435.200000
    229    231     1   0.13040 442667.200000
    228    229     1   0.13710 368192.000000
    228    241     1   0.13740 364844.800000
    226    228     1   0.14750 282001.600000
    226    244     1   0.15260 259408.000000
    225    226     1   0.14100 267776.000000
    223    225     1   0.14100 267776.000000
    223    242     1   0.15260 259408.000000
    220    223     1   0.15260 259408.000000
    219    220     1   0.14100 267776.000000
    216    217     1   0.14800 439320.000000
    216    218     1   0.14800 439320.000000
    216    219     1   0.16100 192464.000000
    281    282     1   0.16100 192464.000000
    277    279     1   0.14100 267776.000000
    275    277     1   0.15260 259408.000000
    275    281     1   0.14100 267776.000000
    273    274     1   0.13540 385764.800000
    271    273     1   0.13240 420073.600000
    270    271     1   0.13240 420073.600000
    266    267     1   0.13400 402500.800000
    266    270     1   0.13390 404174.400000
    265    266     1   0.14040 392459.200000
    265    274     1   0.13700 435136.000000
    264    265     1   0.13910 346435.200000
    262    264     1   0.13040 442667.200000
    261    262     1   0.13710 368192.000000
    261    274     1   0.13740 364844.800000
    259    261     1   0.14750 282001.600000
    259    277     1   0.15260 259408.000000
    258    259     1   0.14100 267776.000000
    256    258     1   0.14100 267776.000000
    256    275     1   0.15260 259408.000000
    253    256     1   0.15260 259408.000000
    252    253     1   0.14100 267776.000000
    249    250     1   0.14800 439320.000000
    249    251     1   0.14800 439320.000000
    249    252     1   0.16100 192464.000000
    312    313     1   0.16100 192464.000000
    308    310     1   0.14100 267776.000000
    306    308     1   0.15260 259408.000000
    306    312     1   0.14100 267776.000000
    304    305     1   0.12290 476976.000000
    303    304     1   0.13580 382417.600000
    299    300     1   0.13400 402500.800000
    299    303     1   0.13390 404174.400000
    297    299     1   0.14330 357313.600000
    295    297     1   0.13500 459403.200000
    294    295     1   0.13650 374886.400000
    294    304     1   0.13830 354803.200000
    292    294     1   0.14750 282001.600000
    292    308     1   0.15260 259408.000000
    291    292     1   0.14100 267776.000000
    289    291     1   0.14100 267776.000000
    289    306     1   0.15260 259408.000000
    286    289     1   0.15260 259408.000000
    285    286     1   0.14100 267776.000000
    282    283     1   0.14800 439320.000000
    282    284     1   0.14800 439320.000000
    282    285     1   0.16100 192464.000000
    346    347     1   0.16100 192464.000000
    342    344     1   0.14100 267776.000000
    340    342     1   0.15260 259408.000000
    340    346     1   0.14100 267776.000000
    338    339     1   0.13540 385764.800000
    334    335     1   0.13400 402500.800000
    334    338     1   0.13390 404174.400000
    332    334     1   0.13810 357313.600000
    330    331     1   0.12290 476976.000000
    330    332     1   0.13880 349782.400000
    329    330     1   0.14190 374049.600000
    329    339     1   0.13700 435136.000000
    328    329     1   0.13910 346435.200000
    326    328     1   0.13040 442667.200000
    325    326     1   0.13710 368192.000000
    325    339     1   0.13740 364844.800000
    323    325     1   0.14750 282001.600000
    323    342     1   0.15260 259408.000000
    322    323     1   0.14100 267776.000000
    320    322     1   0.14100 267776.000000
    320    340     1   0.15260 259408.000000
    317    320     1   0.15260 259408.000000
    316    317     1   0.14100 267776.000000
    313    314     1   0.14800 439320.000000
    313    315     1   0.14800 439320.000000
    313    316     1   0.16100 192464.000000
    380    381     1   0.16100 192464.000000
    376    378     1   0.14100 267776.000000
    374    376     1   0.15260 259408.000000
    374    380     1   0.14100 267776.000000
    372    373     1   0.13540 385764.800000
    368    369     1   0.13400 402500.800000
    368    372     1   0.13390 404174.400000
    366    368     1   0.13810 357313.600000
    364    365     1   0.12290 476976.000000
    364    366     1   0.13880 349782.400000
    363    364     1   0.14190 374049.600000
    363    373     1   0.13700 435136.000000
    362    363     1   0.13910 346435.200000
    360    362     1   0.13040 442667.200000
    359    360     1   0.13710 368192.000000
    359    373     1   0.13740 364844.800000
    357    359     1   0.14750 282001.600000
    357    376     1   0.15260 259408.000000
    356    357     1   0.14100 267776.000000
    354    356     1   0.14100 267776.000000
    354    374     1   0.15260 259408.000000
    351    354     1   0.15260 259408.000000
    350    351     1   0.14100 267776.000000
    347    348     1   0.14800 439320.000000
    347    349     1   0.14800 439320.000000
    347    350     1   0.16100 192464.000000
    414    415     1   0.16100 192464.000000
    410    412     1   0.14100 267776.000000
    408    410     1   0.15260 259408.000000
    408    414     1   0.14100 267776.000000
    406    407     1   0.13540 385764.800000
    402    403     1   0.13400 402500.800000
    402    406     1   0.13390 404174.400000
    400    402     1   0.13810 357313.600000
    398    399     1   0.12290 476976.000000
    398    400     1   0.13880 349782.400000
    397    398     1   0.14190 374049.600000
    397    407     1   0.13700 435136.000000
    396    397     1   0.13910 346435.200000
    394    396     1   0.13040 442667.200000
    393    394     1   0.13710 368192.000000
    393    407     1   0.13740 364844.800000
    391    393     1   0.14750 282001.600000
    391    410     1   0.15260 259408.000000
    390    391     1   0.14100 267776.000000
    388    390     1   0.14100 267776.000000
    388    408     1   0.15260 259408.000000
    385    388     1   0.15260 259408.000000
    384    385     1   0.14100 267776.000000
    381    382     1   0.14800 439320.000000
    381    383     1   0.14800 439320.000000
    381    384     1   0.16100 192464.000000
    444    445     1   0.16100 192464.000000
    440    442     1   0.14100 267776.000000
    438    440     1   0.15260 259408.000000
    438    444     1   0.14100 267776.000000
    436    437     1   0.12290 476976.000000
    434    436     1   0.13880 349782.400000
    432    433     1   0.12290 476976.000000
    432    434     1   0.13880 349782.400000
    430    432     1   0.14440 343088.000000
    428    430     1   0.13500 459403.200000
    427    428     1   0.13650 374886.400000
    427    436     1   0.13830 354803.200000
    425    427     1   0.14750 282001.600000
    425    440     1   0.15260 259408.000000
    424    425     1   0.14100 267776.000000
    422    424     1   0.14100 267776.000000
    422    438     1   0.15260 259408.000000
    419    422     1   0.15260 259408.000000
    418    419     1   0.14100 267776.000000
    415    416     1   0.14800 439320.000000
    415    417     1   0.14800 439320.000000
    415    418     1   0.16100 192464.000000
    474    475     1   0.16100 192464.000000
    470    472     1   0.14100 267776.000000
    468    470     1   0.15260 259408.000000
    468    474     1   0.14100 267776.000000
    466    467     1   0.12290 476976.000000
    464    466     1   0.13880 349782.400000
    462    463     1   0.12290 476976.000000
    462    464     1   0.13880 349782.400000
    460    462     1   0.14440 343088.000000
    458    460     1   0.13500 459403.200000
    457    458     1   0.13650 374886.400000
    457    466     1   0.13830 354803.200000
    455    457     1   0.14750 282001.600000
    455    470     1   0.15260 259408.000000
    454    455     1   0.14100 267776.000000
    452    454     1   0.14100 267776.000000
    452    468     1   0.15260 259408.000000
    449    452     1   0.15260 259408.000000
    448    449     1   0.14100 267776.000000
    445    446     1   0.14800 439320.000000
    445    447     1   0.14800 439320.000000
    445    448     1   0.16100 192464.000000
    504    505     1   0.16100 192464.000000
    500    502     1   0.14100 267776.000000
    498    500     1   0.15260 259408.000000
    498    504     1   0.14100 267776.000000
    496    497     1   0.12290 476976.000000
    494    496     1   0.13880 349782.400000
    492    493     1   0.12290 476976.000000
    492    494     1   0.13880 349782.400000
    490    492     1   0.14440 343088.000000
    488    490     1   0.13500 459403.200000
    487    488     1   0.13650 374886.400000
    487    496     1   0.13830 354803.200000
    485    487     1   0.14750 282001.600000
    485    500     1   0.15260 259408.000000
    484    485     1   0.14100 267776.000000
    482    484     1   0.14100 267776.000000
    482    498     1   0.15260 259408.000000
    479    482     1   0.15260 259408.000000
    478    479     1   0.14100 267776.000000
    475    476     1   0.14800 439320.000000
    475    477     1   0.14800 439320.000000
    475    478     1   0.16100 192464.000000
    538    539     1   0.16100 192464.000000
    534    536     1   0.14100 267776.000000
    532    534     1   0.15260 259408.000000
    532    538     1   0.14100 267776.000000
    530    531     1   0.13540 385764.800000
    526    527     1   0.13400 402500.800000
    526    530     1   0.13390 404174.400000
    524    526     1   0.13810 357313.600000
    522    523     1   0.12290 476976.000000
    522    524     1   0.13880 349782.400000
    521    522     1   0.14190 374049.600000
    521    531     1   0.13700 435136.000000
    520    521     1   0.13910 346435.200000
    518    520     1   0.13040 442667.200000
    517    518     1   0.13710 368192.000000
    517    531     1   0.13740 364844.800000
    515    517     1   0.14750 282001.600000
    515    534     1   0.15260 259408.000000
    514    515     1   0.14100 267776.000000
    512    514     1   0.14100 267776.000000
    512    532     1   0.15260 259408.000000
    509    512     1   0.15260 259408.000000
    508    509     1   0.14100 267776.000000
    505    506     1   0.14800 439320.000000
    505    507     1   0.14800 439320.000000
    505    508     1   0.16100 192464.000000
    569    570     1   0.16100 192464.000000
    565    567     1   0.14100 267776.000000
    563    565     1   0.15260 259408.000000
    563    569     1   0.14100 267776.000000
    561    562     1   0.12290 476976.000000
    560    561     1   0.13580 382417.600000
    556    557     1   0.13400 402500.800000
    556    560     1   0.13390 404174.400000
    554    556     1   0.14330 357313.600000
    552    554     1   0.13500 459403.200000
    551    552     1   0.13650 374886.400000
    551    561     1   0.13830 354803.200000
    549    551     1   0.14750 282001.600000
    549    565     1   0.15260 259408.000000
    548    549     1   0.14100 267776.000000
    546    548     1   0.14100 267776.000000
    546    563     1   0.15260 259408.000000
    543    546     1   0.15260 259408.000000
    542    543     1   0.14100 267776.000000
    539    540     1   0.14800 439320.000000
    539    541     1   0.14800 439320.000000
    539    542     1   0.16100 192464.000000
    603    604     1   0.16100 192464.000000
    599    601     1   0.14100 267776.000000
    597    599     1   0.15260 259408.000000
    597    603     1   0.14100 267776.000000
    595    596     1   0.13540 385764.800000
    591    592     1   0.13400 402500.800000
    591    595     1   0.13390 404174.400000
    589    591     1   0.13810 357313.600000
    587    588     1   0.12290 476976.000000
    587    589     1   0.13880 349782.400000
    586    587     1   0.14190 374049.600000
    586    596     1   0.13700 435136.000000
    585    586     1   0.13910 346435.200000
    583    585     1   0.13040 442667.200000
    582    583     1   0.13710 368192.000000
    582    596     1   0.13740 364844.800000
    580    582     1   0.14750 282001.600000
    580    599     1   0.15260 259408.000000
    579    580     1   0.14100 267776.000000
    577    579     1   0.14100 267776.000000
    577    597     1   0.15260 259408.000000
    574    577     1   0.15260 259408.000000
    573    574     1   0.14100 267776.000000
    570    571     1   0.14800 439320.000000
    570    572     1   0.14800 439320.000000
    570    573     1   0.16100 192464.000000
    637    638     1   0.16100 192464.000000
    633    635     1   0.14100 267776.000000
    631    633     1   0.15260 259408.000000
    631    637     1   0.14100 267776.000000
    629    630     1   0.13540 385764.800000
    625    626     1   0.13400 402500.800000
    625    629     1   0.13390 404174.400000
    623    625     1   0.13810 357313.600000
    621    622     1   0.12290 476976.000000
    621    623     1   0.13880 349782.400000
    620    621     1   0.14190 374049.600000
    620    630     1   0.13700 435136.000000
    619    620     1   0.13910 346435.200000
    617    619     1   0.13040 442667.200000
    616    617     1   0.13710 368192.000000
    616    630     1   0.13740 364844.800000
    614    616     1   0.14750 282001.600000
    614    633     1   0.15260 259408.000000
    613    614     1   0.14100 267776.000000
    611    613     1   0.14100 267776.000000
    611    631     1   0.15260 259408.000000
    608    611     1   0.15260 259408.000000
    607    608     1   0.14100 267776.000000
    604    605     1   0.14800 439320.000000
    604    606     1   0.14800 439320.000000
    604    607     1   0.16100 192464.000000
    667    668     1   0.16100 192464.000000
    663    665     1   0.14100 267776.000000
    661    663     1   0.15260 259408.000000
    661    667     1   0.14100 267776.000000
    659    660     1   0.12290 476976.000000
    657    659     1   0.13880 349782.400000
    655    656     1   0.12290 476976.000000
    655    657     1   0.13880 349782.400000
    653    655     1   0.14440 343088.000000
    651    653     1   0.13500 459403.200000
    650    651     1   0.13650 374886.400000
    650    659     1   0.13830 354803.200000
    648    650     1   0.14750 282001.600000
    648    663     1   0.15260 259408.000000
    647    648     1   0.14100 267776.000000
    645    647     1   0.14100 267776.000000
    645    661     1   0.15260 259408.000000
    642    645     1   0.15260 259408.000000
    641    642     1   0.14100 267776.000000
    638    639     1   0.14800 439320.000000
    638    640     1   0.14800 439320.000000
    638    641     1   0.16100 192464.000000
    701    702     1   0.16100 192464.000000
    697    699     1   0.14100 267776.000000
    695    697     1   0.15260 259408.000000
    695    701     1   0.14100 267776.000000
    693    694     1   0.13540 385764.800000
    689    690     1   0.13400 402500.800000
    689    693     1   0.13390 404174.400000
    687    689     1   0.13810 357313.600000
    685    686     1   0.12290 476976.000000
    685    687     1   0.13880 349782.400000
    684    685     1   0.14190 374049.600000
    684    694     1   0.13700 435136.000000
    683    684     1   0.13910 346435.200000
    681    683     1   0.13040 442667.200000
    680    681     1   0.13710 368192.000000
    680    694     1   0.13740 364844.800000
    678    680     1   0.14750 282001.600000
    678    697     1   0.15260 259408.000000
    677    678     1   0.14100 267776.000000
    675    677     1   0.14100 267776.000000
    675    695     1   0.15260 259408.000000
    672    675     1   0.15260 259408.000000
    671    672     1   0.14100 267776.000000
    668    669     1   0.14800 439320.000000
    668    670     1   0.14800 439320.000000
    668    671     1   0.16100 192464.000000
    731    732     1   0.16100 192464.000000
    727    729     1   0.14100 267776.000000
    725    727     1   0.15260 259408.000000
    725    731     1   0.14100 267776.000000
    723    724     1   0.12290 476976.000000
    721    723     1   0.13880 349782.400000
    719    720     1   0.12290 476976.000000
    719    721     1   0.13880 349782.400000
    717    719     1   0.14440 343088.000000
    715    717     1   0.13500 459403.200000
    714    715     1   0.13650 374886.400000
    714    723     1   0.13830 354803.200000
    712    714     1   0.14750 282001.600000
    712    727     1   0.15260 259408.000000
    711    712     1   0.14100 267776.000000
    709    711     1   0.14100 267776.000000
    709    725     1   0.15260 259408.000000
    706    709     1   0.15260 259408.000000
    705    706     1   0.14100 267776.000000
    702    703     1   0.14800 439320.000000
    702    704     1   0.14800 439320.000000
    702    705     1   0.16100 192464.000000
    764    765     1   0.16100 192464.000000
    760    762     1   0.14100 267776.000000
    758    760     1   0.15260 259408.000000
    758    764     1   0.14100 267776.000000
    756    757     1   0.13540 385764.800000
    754    756     1   0.13240 420073.600000
    753    754     1   0.13240 420073.600000
    749    750     1   0.13400 402500.800000
    749    753     1   0.13390 404174.400000
    748    749     1   0.14040 392459.200000
    748    757     1   0.13700 435136.000000
    747    748     1   0.13910 346435.200000
    745    747     1   0.13040 442667.200000
    744    745     1   0.13710 368192.000000
    744    757     1   0.13740 364844.800000
    742    744     1   0.14750 282001.600000
    742    760     1   0.15260 259408.000000
    741    742     1   0.14100 267776.000000
    739    741     1   0.14100 267776.000000
    739    758     1   0.15260 259408.000000
    736    739     1   0.15260 259408.000000
    735    736     1   0.14100 267776.000000
    732    733     1   0.14800 439320.000000
    732    734     1   0.14800 439320.000000
    732    735     1   0.16100 192464.000000
    797    798     1   0.16100 192464.000000
    793    795     1   0.14100 267776.000000
    791    793     1   0.15260 259408.000000
    791    797     1   0.14100 267776.000000
    789    790     1   0.13540 385764.800000
    787    789     1   0.13240 420073.600000
    786    787     1   0.13240 420073.600000
    782    783     1   0.13400 402500.800000
    782    786     1   0.13390 404174.400000
    781    782     1   0.14040 392459.200000
    781    790     1   0.13700 435136.000000
    780    781     1   0.13910 346435.200000
    778    780     1   0.13040 442667.200000
    777    778     1   0.13710 368192.000000
    777    790     1   0.13740 364844.800000
    775    777     1   0.14750 282001.600000
    775    793     1   0.15260 259408.000000
    774    775     1   0.14100 267776.000000
    772    774     1   0.14100 267776.000000
    772    791     1   0.15260 259408.000000
    769    772     1   0.15260 259408.000000
    768    769     1   0.14100 267776.000000
    765    766     1   0.14800 439320.000000
    765    767     1   0.14800 439320.000000
    765    768     1   0.16100 192464.000000
    831    832     1   0.16100 192464.000000
    827    829     1   0.14100 267776.000000
    825    827     1   0.15260 259408.000000
    825    831     1   0.14100 267776.000000
    823    824     1   0.13540 385764.800000
    819    820     1   0.13400 402500.800000
    819    823     1   0.13390 404174.400000
    817    819     1   0.13810 357313.600000
    815    816     1   0.12290 476976.000000
    815    817     1   0.13880 349782.400000
    814    815     1   0.14190 374049.600000
    814    824     1   0.13700 435136.000000
    813    814     1   0.13910 346435.200000
    811    813     1   0.13040 442667.200000
    810    811     1   0.13710 368192.000000
    810    824     1   0.13740 364844.800000
    808    810     1   0.14750 282001.600000
    808    827     1   0.15260 259408.000000
    807    808     1   0.14100 267776.000000
    805    807     1   0.14100 267776.000000
    805    825     1   0.15260 259408.000000
    802    805     1   0.15260 259408.000000
    801    802     1   0.14100 267776.000000
    798    799     1   0.14800 439320.000000
    798    800     1   0.14800 439320.000000
    798    801     1   0.16100 192464.000000
    861    862     1   0.16100 192464.000000
    857    859     1   0.14100 267776.000000
    855    857     1   0.15260 259408.000000
    855    861     1   0.14100 267776.000000
    853    854     1   0.12290 476976.000000
    851    853     1   0.13880 349782.400000
    849    850     1   0.12290 476976.000000
    849    851     1   0.13880 349782.400000
    847    849     1   0.14440 343088.000000
    845    847     1   0.13500 459403.200000
    844    845     1   0.13650 374886.400000
    844    853     1   0.13830 354803.200000
    842    844     1   0.14750 282001.600000
    842    857     1   0.15260 259408.000000
    841    842     1   0.14100 267776.000000
    839    841     1   0.14100 267776.000000
    839    855     1   0.15260 259408.000000
    836    839     1   0.15260 259408.000000
    835    836     1   0.14100 267776.000000
    832    833     1   0.14800 439320.000000
    832    834     1   0.14800 439320.000000
    832    835     1   0.16100 192464.000000
    895    896     1   0.16100 192464.000000
    891    893     1   0.14100 267776.000000
    889    891     1   0.15260 259408.000000
    889    895     1   0.14100 267776.000000
    887    888     1   0.13540 385764.800000
    883    884     1   0.13400 402500.800000
    883    887     1   0.13390 404174.400000
    881    883     1   0.13810 357313.600000
    879    880     1   0.12290 476976.000000
    879    881     1   0.13880 349782.400000
    878    879     1   0.14190 374049.600000
    878    888     1   0.13700 435136.000000
    877    878     1   0.13910 346435.200000
    875    877     1   0.13040 442667.200000
    874    875     1   0.13710 368192.000000
    874    888     1   0.13740 364844.800000
    872    874     1   0.14750 282001.600000
    872    891     1   0.15260 259408.000000
    871    872     1   0.14100 267776.000000
    869    871     1   0.14100 267776.000000
    869    889     1   0.15260 259408.000000
    866    869     1   0.15260 259408.000000
    865    866     1   0.14100 267776.000000
    862    863     1   0.14800 439320.000000
    862    864     1   0.14800 439320.000000
    862    865     1   0.16100 192464.000000
    926    927     1   0.16100 192464.000000
    922    924     1   0.14100 267776.000000
    920    922     1   0.15260 259408.000000
    920    926     1   0.14100 267776.000000
    918    919     1   0.12290 476976.000000
    917    918     1   0.13580 382417.600000
    913    914     1   0.13400 402500.800000
    913    917     1   0.13390 404174.400000
    911    913     1   0.14330 357313.600000
    909    911     1   0.13500 459403.200000
    908    909     1   0.13650 374886.400000
    908    918     1   0.13830 354803.200000
    906    908     1   0.14750 282001.600000
    906    922     1   0.15260 259408.000000
    905    906     1   0.14100 267776.000000
    903    905     1   0.14100 267776.000000
    903    920     1   0.15260 259408.000000
    900    903     1   0.15260 259408.000000
    899    900     1   0.14100 267776.000000
    896    897     1   0.14800 439320.000000
    896    898     1   0.14800 439320.000000
    896    899     1   0.16100 192464.000000
    959    960     1   0.16100 192464.000000
    955    957     1   0.14100 267776.000000
    953    955     1   0.15260 259408.000000
    953    959     1   0.14100 267776.000000
    951    952     1   0.13540 385764.800000
    949    951     1   0.13240 420073.600000
    948    949     1   0.13240 420073.600000
    944    945     1   0.13400 402500.800000
    944    948     1   0.13390 404174.400000
    943    944     1   0.14040 392459.200000
    943    952     1   0.13700 435136.000000
    942    943     1   0.13910 346435.200000
    940    942     1   0.13040 442667.200000
    939    940     1   0.13710 368192.000000
    939    952     1   0.13740 364844.800000
    937    939     1   0.14750 282001.600000
    937    955     1   0.15260 259408.000000
    936    937     1   0.14100 267776.000000
    934    936     1   0.14100 267776.000000
    934    953     1   0.15260 259408.000000
    931    934     1   0.15260 259408.000000
    930    931     1   0.14100 267776.000000
    927    928     1   0.14800 439320.000000
    927    929     1   0.14800 439320.000000
    927    930     1   0.16100 192464.000000
    993    994     1   0.16100 192464.000000
    989    991     1   0.14100 267776.000000
    987    989     1   0.15260 259408.000000
    987    993     1   0.14100 267776.000000
    985    986     1   0.13540 385764.800000
    981    982     1   0.13400 402500.800000
    981    985     1   0.13390 404174.400000
    979    981     1   0.13810 357313.600000
    977    978     1   0.12290 476976.000000
    977    979     1   0.13880 349782.400000
    976    977     1   0.14190 374049.600000
    976    986     1   0.13700 435136.000000
    975    976     1   0.13910 346435.200000
    973    975     1   0.13040 442667.200000
    972    973     1   0.13710 368192.000000
    972    986     1   0.13740 364844.800000
    970    972     1   0.14750 282001.600000
    970    989     1   0.15260 259408.000000
    969    970     1   0.14100 267776.000000
    967    969     1   0.14100 267776.000000
    967    987     1   0.15260 259408.000000
    964    967     1   0.15260 259408.000000
    963    964     1   0.14100 267776.000000
    960    961     1   0.14800 439320.000000
    960    962     1   0.14800 439320.000000
    960    963     1   0.16100 192464.000000
   1024   1025     1   0.16100 192464.000000
   1020   1022     1   0.14100 267776.000000
   1018   1020     1   0.15260 259408.000000
   1018   1024     1   0.14100 267776.000000
   1016   1017     1   0.12290 476976.000000
   1015   1016     1   0.13580 382417.600000
   1011   1012     1   0.13400 402500.800000
   1011   1015     1   0.13390 404174.400000
   1009   1011     1   0.14330 357313.600000
   1007   1009     1   0.13500 459403.200000
   1006   1007     1   0.13650 374886.400000
   1006   1016     1   0.13830 354803.200000
   1004   1006     1   0.14750 282001.600000
   1004   1020     1   0.15260 259408.000000
   1003   1004     1   0.14100 267776.000000
   1001   1003     1   0.14100 267776.000000
   1001   1018     1   0.15260 259408.000000
    998   1001     1   0.15260 259408.000000
    997    998     1   0.14100 267776.000000
    994    995     1   0.14800 439320.000000
    994    996     1   0.14800 439320.000000
    994    997     1   0.16100 192464.000000
   1055   1056     1   0.16100 192464.000000
   1051   1053     1   0.14100 267776.000000
   1049   1051     1   0.15260 259408.000000
   1049   1055     1   0.14100 267776.000000
   1047   1048     1   0.12290 476976.000000
   1046   1047     1   0.13580 382417.600000
   1042   1043     1   0.13400 402500.800000
   1042   1046     1   0.13390 404174.400000
   1040   1042     1   0.14330 357313.600000
   1038   1040     1   0.13500 459403.200000
   1037   1038     1   0.13650 374886.400000
   1037   1047     1   0.13830 354803.200000
   1035   1037     1   0.14750 282001.600000
   1035   1051     1   0.15260 259408.000000
   1034   1035     1   0.14100 267776.000000
   1032   1034     1   0.14100 267776.000000
   1032   1049     1   0.15260 259408.000000
   1029   1032     1   0.15260 259408.000000
   1028   1029     1   0.14100 267776.000000
   1025   1026     1   0.14800 439320.000000
   1025   1027     1   0.14800 439320.000000
   1025   1028     1   0.16100 192464.000000
   1086   1087     1   0.16100 192464.000000
   1082   1084     1   0.14100 267776.000000
   1080   1082     1   0.15260 259408.000000
   1080   1086     1   0.14100 267776.000000
   1078   1079     1   0.12290 476976.000000
   1077   1078     1   0.13580 382417.600000
   1073   1074     1   0.13400 402500.800000
   1073   1077     1   0.13390 404174.400000
   1071   1073     1   0.14330 357313.600000
   1069   1071     1   0.13500 459403.200000
   1068   1069     1   0.13650 374886.400000
   1068   1078     1   0.13830 354803.200000
   1066   1068     1   0.14750 282001.600000
   1066   1082     1   0.15260 259408.000000
   1065   1066     1   0.14100 267776.000000
   1063   1065     1   0.14100 267776.000000
   1063   1080     1   0.15260 259408.000000
   1060   1063     1   0.15260 259408.000000
   1059   1060     1   0.14100 267776.000000
   1056   1057     1   0.14800 439320.000000
   1056   1058     1   0.14800 439320.000000
   1056   1059     1   0.16100 192464.000000
   1120   1121     1   0.16100 192464.000000
   1116   1118     1   0.14100 267776.000000
   1114   1116     1   0.15260 259408.000000
   1114   1120     1   0.14100 267776.000000
   1112   1113     1   0.13540 385764.800000
   1108   1109     1   0.13400 402500.800000
   1108   1112     1   0.13390 404174.400000
   1106   1108     1   0.13810 357313.600000
   1104   1105     1   0.12290 476976.000000
   1104   1106     1   0.13880 349782.400000
   1103   1104     1   0.14190 374049.600000
   1103   1113     1   0.13700 435136.000000
   1102   1103     1   0.13910 346435.200000
   1100   1102     1   0.13040 442667.200000
   1099   1100     1   0.13710 368192.000000
   1099   1113     1   0.13740 364844.800000
   1097   1099     1   0.14750 282001.600000
   1097   1116     1   0.15260 259408.000000
   1096   1097     1   0.14100 267776.000000
   1094   1096     1   0.14100 267776.000000
   1094   1114     1   0.15260 259408.000000
   1091   1094     1   0.15260 259408.000000
   1090   1091     1   0.14100 267776.000000
   1087   1088     1   0.14800 439320.000000
   1087   1089     1   0.14800 439320.000000
   1087   1090     1   0.16100 192464.000000
   1150   1151     1   0.16100 192464.000000
   1146   1148     1   0.14100 267776.000000
   1144   1146     1   0.15260 259408.000000
   1144   1150     1   0.14100 267776.000000
   1142   1143     1   0.12290 476976.000000
   1140   1142     1   0.13880 349782.400000
   1138   1139     1   0.12290 476976.000000
   1138   1140     1   0.13880 349782.400000
   1136   1138     1   0.14440 343088.000000
   1134   1136     1   0.13500 459403.200000
   1133   1134     1   0.13650 374886.400000
   1133   1142     1   0.13830 354803.200000
   1131   1133     1   0.14750 282001.600000
   1131   1146     1   0.15260 259408.000000
   1130   1131     1   0.14100 267776.000000
   1128   1130     1   0.14100 267776.000000
   1128   1144     1   0.15260 259408.000000
   1125   1128     1   0.15260 259408.000000
   1124   1125     1   0.14100 267776.000000
   1121   1122     1   0.14800 439320.000000
   1121   1123     1   0.14800 439320.000000
   1121   1124     1   0.16100 192464.000000
   1181   1182     1   0.16100 192464.000000
   1177   1179     1   0.14100 267776.000000
   1175   1177     1   0.15260 259408.000000
   1175   1181     1   0.14100 267776.000000
   1173   1174     1   0.12290 476976.000000
   1172   1173     1   0.13580 382417.600000
   1168   1169     1   0.13400 402500.800000
   1168   1172     1   0.13390 404174.400000
   1166   1168     1   0.14330 357313.600000
   1164   1166     1   0.13500 459403.200000
   1163   1164     1   0.13650 374886.400000
   1163   1173     1   0.13830 354803.200000
   1161   1163     1   0.14750 282001.600000
   1161   1177     1   0.15260 259408.000000
   1160   1161     1   0.14100 267776.000000
   1158   1160     1   0.14100 267776.000000
   1158   1175     1   0.15260 259408.000000
   1155   1158     1   0.15260 259408.000000
   1154   1155     1   0.14100 267776.000000
   1151   1152     1   0.14800 439320.000000
   1151   1153     1   0.14800 439320.000000
   1151   1154     1   0.16100 192464.000000
   1211   1212     1   0.16100 192464.000000
   1207   1209     1   0.14100 267776.000000
   1205   1207     1   0.15260 259408.000000
   1205   1211     1   0.14100 267776.000000
   1203   1204     1   0.12290 476976.000000
   1201   1203     1   0.13880 349782.400000
   1199   1200     1   0.12290 476976.000000
   1199   1201     1   0.13880 349782.400000
   1197   1199     1   0.14440 343088.000000
   1195   1197     1   0.13500 459403.200000
   1194   1195     1   0.13650 374886.400000
   1194   1203     1   0.13830 354803.200000
   1192   1194     1   0.14750 282001.600000
   1192   1207     1   0.15260 259408.000000
   1191   1192     1   0.14100 267776.000000
   1189   1191     1   0.14100 267776.000000
   1189   1205     1   0.15260 259408.000000
   1186   1189     1   0.15260 259408.000000
   1185   1186     1   0.14100 267776.000000
   1182   1183     1   0.14800 439320.000000
   1182   1184     1   0.14800 439320.000000
   1182   1185     1   0.16100 192464.000000
   1241   1242     1   0.16100 192464.000000
   1237   1239     1   0.14100 267776.000000
   1235   1237     1   0.15260 259408.000000
   1235   1241     1   0.14100 267776.000000
   1233   1234     1   0.12290 476976.000000
   1231   1233     1   0.13880 349782.400000
   1229   1230     1   0.12290 476976.000000
   1229   1231     1   0.13880 349782.400000
   1227   1229     1   0.14440 343088.000000
   1225   1227     1   0.13500 459403.200000
   1224   1225     1   0.13650 374886.400000
   1224   1233     1   0.13830 354803.200000
   1222   1224     1   0.14750 282001.600000
   1222   1237     1   0.15260 259408.000000
   1221   1222     1   0.14100 267776.000000
   1219   1221     1   0.14100 267776.000000
   1219   1235     1   0.15260 259408.000000
   1216   1219     1   0.15260 259408.000000
   1215   1216     1   0.14100 267776.000000
   1212   1213     1   0.14800 439320.000000
   1212   1214     1   0.14800 439320.000000
   1212   1215     1   0.16100 192464.000000
   1274   1275     1   0.16100 192464.000000
   1270   1272     1   0.14100 267776.000000
   1268   1270     1   0.15260 259408.000000
   1268   1274     1   0.14100 267776.000000
   1266   1267     1   0.13540 385764.800000
   1264   1266     1   0.13240 420073.600000
   1263   1264     1   0.13240 420073.600000
   1259   1260     1   0.13400 402500.800000
   1259   1263     1   0.13390 404174.400000
   1258   1259     1   0.14040 392459.200000
   1258   1267     1   0.13700 435136.000000
   1257   1258     1   0.13910 346435.200000
   1255   1257     1   0.13040 442667.200000
   1254   1255     1   0.13710 368192.000000
   1254   1267     1   0.13740 364844.800000
   1252   1254     1   0.14750 282001.600000
   1252   1270     1   0.15260 259408.000000
   1251   1252     1   0.14100 267776.000000
   1249   1251     1   0.14100 267776.000000
   1249   1268     1   0.15260 259408.000000
   1246   1249     1   0.15260 259408.000000
   1245   1246     1   0.14100 267776.000000
   1242   1243     1   0.14800 439320.000000
   1242   1244     1   0.14800 439320.000000
   1242   1245     1   0.16100 192464.000000
   1305   1306     1   0.16100 192464.000000
   1301   1303     1   0.14100 267776.000000
   1299   1301     1   0.15260 259408.000000
   1299   1305     1   0.14100 267776.000000
   1297   1298     1   0.12290 476976.000000
   1296   1297     1   0.13580 382417.600000
   1292   1293     1   0.13400 402500.800000
   1292   1296     1   0.13390 404174.400000
   1290   1292     1   0.14330 357313.600000
   1288   1290     1   0.13500 459403.200000
   1287   1288     1   0.13650 374886.400000
   1287   1297     1   0.13830 354803.200000
   1285   1287     1   0.14750 282001.600000
   1285   1301     1   0.15260 259408.000000
   1284   1285     1   0.14100 267776.000000
   1282   1284     1   0.14100 267776.000000
   1282   1299     1   0.15260 259408.000000
   1279   1282     1   0.15260 259408.000000
   1278   1279     1   0.14100 267776.000000
   1275   1276     1   0.14800 439320.000000
   1275   1277     1   0.14800 439320.000000
   1275   1278     1   0.16100 192464.000000
   1338   1339     1   0.16100 192464.000000
   1334   1336     1   0.14100 267776.000000
   1332   1334     1   0.15260 259408.000000
   1332   1338     1   0.14100 267776.000000
   1330   1331     1   0.13540 385764.800000
   1328   1330     1   0.13240 420073.600000
   1327   1328     1   0.13240 420073.600000
   1323   1324     1   0.13400 402500.800000
   1323   1327     1   0.13390 404174.400000
   1322   1323     1   0.14040 392459.200000
   1322   1331     1   0.13700 435136.000000
   1321   1322     1   0.13910 346435.200000
   1319   1321     1   0.13040 442667.200000
   1318   1319     1   0.13710 368192.000000
   1318   1331     1   0.13740 364844.800000
   1316   1318     1   0.14750 282001.600000
   1316   1334     1   0.15260 259408.000000
   1315   1316     1   0.14100 267776.000000
   1313   1315     1   0.14100 267776.000000
   1313   1332     1   0.15260 259408.000000
   1310   1313     1   0.15260 259408.000000
   1309   1310     1   0.14100 267776.000000
   1306   1307     1   0.14800 439320.000000
   1306   1308     1   0.14800 439320.000000
   1306   1309     1   0.16100 192464.000000
   1369   1370     1   0.16100 192464.000000
   1365   1367     1   0.14100 267776.000000
   1363   1365     1   0.15260 259408.000000
   1363   1369     1   0.14100 267776.000000
   1361   1362     1   0.12290 476976.000000
   1360   1361     1   0.13580 382417.600000
   1356   1357     1   0.13400 402500.800000
   1356   1360     1   0.13390 404174.400000
   1354   1356     1   0.14330 357313.600000
   1352   1354     1   0.13500 459403.200000
   1351   1352     1   0.13650 374886.400000
   1351   1361     1   0.13830 354803.200000
   1349   1351     1   0.14750 282001.600000
   1349   1365     1   0.15260 259408.000000
   1348   1349     1   0.14100 267776.000000
   1346   1348     1   0.14100 267776.000000
   1346   1363     1   0.15260 259408.000000
   1343   1346     1   0.15260 259408.000000
   1342   1343     1   0.14100 267776.000000
   1339   1340     1   0.14800 439320.000000
   1339   1341     1   0.14800 439320.000000
   1339   1342     1   0.16100 192464.000000
   1400   1401     1   0.16100 192464.000000
   1396   1398     1   0.14100 267776.000000
   1394   1396     1   0.15260 259408.000000
   1394   1400     1   0.14100 267776.000000
   1392   1393     1   0.12290 476976.000000
   1391   1392     1   0.13580 382417.600000
   1387   1388     1   0.13400 402500.800000
   1387   1391     1   0.13390 404174.400000
   1385   1387     1   0.14330 357313.600000
   1383   1385     1   0.13500 459403.200000
   1382   1383     1   0.13650 374886.400000
   1382   1392     1   0.13830 354803.200000
   1380   1382     1   0.14750 282001.600000
   1380   1396     1   0.15260 259408.000000
   1379   1380     1   0.14100 267776.000000
   1377   1379     1   0.14100 267776.000000
   1377   1394     1   0.15260 259408.000000
   1374   1377     1   0.15260 259408.000000
   1373   1374     1   0.14100 267776.000000
   1370   1371     1   0.14800 439320.000000
   1370   1372     1   0.14800 439320.000000
   1370   1373     1   0.16100 192464.000000
   1434   1435     1   0.16100 192464.000000
   1430   1432     1   0.14100 267776.000000
   1428   1430     1   0.15260 259408.000000
   1428   1434     1   0.14100 267776.000000
   1426   1427     1   0.13540 385764.800000
   1422   1423     1   0.13400 402500.800000
   1422   1426     1   0.13390 404174.400000
   1420   1422     1   0.13810 357313.600000
   1418   1419     1   0.12290 476976.000000
   1418   1420     1   0.13880 349782.400000
   1417   1418     1   0.14190 374049.600000
   1417   1427     1   0.13700 435136.000000
   1416   1417     1   0.13910 346435.200000
   1414   1416     1   0.13040 442667.200000
   1413   1414     1   0.13710 368192.000000
   1413   1427     1   0.13740 364844.800000
   1411   1413     1   0.14750 282001.600000
   1411   1430     1   0.15260 259408.000000
   1410   1411     1   0.14100 267776.000000
   1408   1410     1   0.14100 267776.000000
   1408   1428     1   0.15260 259408.000000
   1405   1408     1   0.15260 259408.000000
   1404   1405     1   0.14100 267776.000000
   1401   1402     1   0.14800 439320.000000
   1401   1403     1   0.14800 439320.000000
   1401   1404     1   0.16100 192464.000000
   1464   1465     1   0.16100 192464.000000
   1460   1462     1   0.14100 267776.000000
   1458   1460     1   0.15260 259408.000000
   1458   1464     1   0.14100 267776.000000
   1456   1457     1   0.12290 476976.000000
   1454   1456     1   0.13880 349782.400000
   1452   1453     1   0.12290 476976.000000
   1452   1454     1   0.13880 349782.400000
   1450   1452     1   0.14440 343088.000000
   1448   1450     1   0.13500 459403.200000
   1447   1448     1   0.13650 374886.400000
   1447   1456     1   0.13830 354803.200000
   1445   1447     1   0.14750 282001.600000
   1445   1460     1   0.15260 259408.000000
   1444   1445     1   0.14100 267776.000000
   1442   1444     1   0.14100 267776.000000
   1442   1458     1   0.15260 259408.000000
   1439   1442     1   0.15260 259408.000000
   1438   1439     1   0.14100 267776.000000
   1435   1436     1   0.14800 439320.000000
   1435   1437     1   0.14800 439320.000000
   1435   1438     1   0.16100 192464.000000
   1498   1499     1   0.16100 192464.000000
   1494   1496     1   0.14100 267776.000000
   1492   1494     1   0.15260 259408.000000
   1492   1498     1   0.14100 267776.000000
   1490   1491     1   0.13540 385764.800000
   1486   1487     1   0.13400 402500.800000
   1486   1490     1   0.13390 404174.400000
   1484   1486     1   0.13810 357313.600000
   1482   1483     1   0.12290 476976.000000
   1482   1484     1   0.13880 349782.400000
   1481   1482     1   0.14190 374049.600000
   1481   1491     1   0.13700 435136.000000
   1480   1481     1   0.13910 346435.200000
   1478   1480     1   0.13040 442667.200000
   1477   1478     1   0.13710 368192.000000
   1477   1491     1   0.13740 364844.800000
   1475   1477     1   0.14750 282001.600000
   1475   1494     1   0.15260 259408.000000
   1474   1475     1   0.14100 267776.000000
   1472   1474     1   0.14100 267776.000000
   1472   1492     1   0.15260 259408.000000
   1469   1472     1   0.15260 259408.000000
   1468   1469     1   0.14100 267776.000000
   1465   1466     1   0.14800 439320.000000
   1465   1467     1   0.14800 439320.000000
   1465   1468     1   0.16100 192464.000000
   1529   1530     1   0.16100 192464.000000
   1525   1527     1   0.14100 267776.000000
   1523   1525     1   0.15260 259408.000000
   1523   1529     1   0.14100 267776.000000
   1521   1522     1   0.12290 476976.000000
   1520   1521     1   0.13580 382417.600000
   1516   1517     1   0.13400 402500.800000
   1516   1520     1   0.13390 404174.400000
   1514   1516     1   0.14330 357313.600000
   1512   1514     1   0.13500 459403.200000
   1511   1512     1   0.13650 374886.400000
   1511   1521     1   0.13830 354803.200000
   1509   1511     1   0.14750 282001.600000
   1509   1525     1   0.15260 259408.000000
   1508   1509     1   0.14100 267776.000000
   1506   1508     1   0.14100 267776.000000
   1506   1523     1   0.15260 259408.000000
   1503   1506     1   0.15260 259408.000000
   1502   1503     1   0.14100 267776.000000
   1499   1500     1   0.14800 439320.000000
   1499   1501     1   0.14800 439320.000000
   1499   1502     1   0.16100 192464.000000
   1563   1564     1   0.16100 192464.000000
   1559   1561     1   0.14100 267776.000000
   1557   1559     1   0.15260 259408.000000
   1557   1563     1   0.14100 267776.000000
   1555   1556     1   0.13540 385764.800000
   1551   1552     1   0.13400 402500.800000
   1551   1555     1   0.13390 404174.400000
   1549   1551     1   0.13810 357313.600000
   1547   1548     1   0.12290 476976.000000
   1547   1549     1   0.13880 349782.400000
   1546   1547     1   0.14190 374049.600000
   1546   1556     1   0.13700 435136.000000
   1545   1546     1   0.13910 346435.200000
   1543   1545     1   0.13040 442667.200000
   1542   1543     1   0.13710 368192.000000
   1542   1556     1   0.13740 364844.800000
   1540   1542     1   0.14750 282001.600000
   1540   1559     1   0.15260 259408.000000
   1539   1540     1   0.14100 267776.000000
   1537   1539     1   0.14100 267776.000000
   1537   1557     1   0.15260 259408.000000
   1534   1537     1   0.15260 259408.000000
   1533   1534     1   0.14100 267776.000000
   1530   1531     1   0.14800 439320.000000
   1530   1532     1   0.14800 439320.000000
   1530   1533     1   0.16100 192464.000000
   1597   1598     1   0.16100 192464.000000
   1593   1595     1   0.14100 267776.000000
   1591   1593     1   0.15260 259408.000000
   1591   1597     1   0.14100 267776.000000
   1589   1590     1   0.13540 385764.800000
   1585   1586     1   0.13400 402500.800000
   1585   1589     1   0.13390 404174.400000
   1583   1585     1   0.13810 357313.600000
   1581   1582     1   0.12290 476976.000000
   1581   1583     1   0.13880 349782.400000
   1580   1581     1   0.14190 374049.600000
   1580   1590     1   0.13700 435136.000000
   1579   1580     1   0.13910 346435.200000
   1577   1579     1   0.13040 442667.200000
   1576   1577     1   0.13710 368192.000000
   1576   1590     1   0.13740 364844.800000
   1574   1576     1   0.14750 282001.600000
   1574   1593     1   0.15260 259408.000000
   1573   1574     1   0.14100 267776.000000
   1571   1573     1   0.14100 267776.000000
   1571   1591     1   0.15260 259408.000000
   1568   1571     1   0.15260 259408.000000
   1567   1568     1   0.14100 267776.000000
   1564   1565     1   0.14800 439320.000000
   1564   1566     1   0.14800 439320.000000
   1564   1567     1   0.16100 192464.000000
   1628   1629     1   0.16100 192464.000000
   1624   1626     1   0.14100 267776.000000
   1622   1624     1   0.15260 259408.000000
   1622   1628     1   0.14100 267776.000000
   1620   1621     1   0.12290 476976.000000
   1619   1620     1   0.13580 382417.600000
   1615   1616     1   0.13400 402500.800000
   1615   1619     1   0.13390 404174.400000
   1613   1615     1   0.14330 357313.600000
   1611   1613     1   0.13500 459403.200000
   1610   1611     1   0.13650 374886.400000
   1610   1620     1   0.13830 354803.200000
   1608   1610     1   0.14750 282001.600000
   1608   1624     1   0.15260 259408.000000
   1607   1608     1   0.14100 267776.000000
   1605   1607     1   0.14100 267776.000000
   1605   1622     1   0.15260 259408.000000
   1602   1605     1   0.15260 259408.000000
   1601   1602     1   0.14100 267776.000000
   1598   1599     1   0.14800 439320.000000
   1598   1600     1   0.14800 439320.000000
   1598   1601     1   0.16100 192464.000000
   1661   1662     1   0.16100 192464.000000
   1657   1659     1   0.14100 267776.000000
   1655   1657     1   0.15260 259408.000000
   1655   1661     1   0.14100 267776.000000
   1653   1654     1   0.13540 385764.800000
   1651   1653     1   0.13240 420073.600000
   1650   1651     1   0.13240 420073.600000
   1646   1647     1   0.13400 402500.800000
   1646   1650     1   0.13390 404174.400000
   1645   1646     1   0.14040 392459.200000
   1645   1654     1   0.13700 435136.000000
   1644   1645     1   0.13910 346435.200000
   1642   1644     1   0.13040 442667.200000
   1641   1642     1   0.13710 368192.000000
   1641   1654     1   0.13740 364844.800000
   1639   1641     1   0.14750 282001.600000
   1639   1657     1   0.15260 259408.000000
   1638   1639     1   0.14100 267776.000000
   1636   1638     1   0.14100 267776.000000
   1636   1655     1   0.15260 259408.000000
   1633   1636     1   0.15260 259408.000000
   1632   1633     1   0.14100 267776.000000
   1629   1630     1   0.14800 439320.000000
   1629   1631     1   0.14800 439320.000000
   1629   1632     1   0.16100 192464.000000
   1692   1693     1   0.16100 192464.000000
   1688   1690     1   0.14100 267776.000000
   1686   1688     1   0.15260 259408.000000
   1686   1692     1   0.14100 267776.000000
   1684   1685     1   0.12290 476976.000000
   1683   1684     1   0.13580 382417.600000
   1679   1680     1   0.13400 402500.800000
   1679   1683     1   0.13390 404174.400000
   1677   1679     1   0.14330 357313.600000
   1675   1677     1   0.13500 459403.200000
   1674   1675     1   0.13650 374886.400000
   1674   1684     1   0.13830 354803.200000
   1672   1674     1   0.14750 282001.600000
   1672   1688     1   0.15260 259408.000000
   1671   1672     1   0.14100 267776.000000
   1669   1671     1   0.14100 267776.000000
   1669   1686     1   0.15260 259408.000000
   1666   1669     1   0.15260 259408.000000
   1665   1666     1   0.14100 267776.000000
   1662   1663     1   0.14800 439320.000000
   1662   1664     1   0.14800 439320.000000
   1662   1665     1   0.16100 192464.000000
   1725   1726     1   0.16100 192464.000000
   1721   1723     1   0.14100 267776.000000
   1719   1721     1   0.15260 259408.000000
   1719   1725     1   0.14100 267776.000000
   1717   1718     1   0.13540 385764.800000
   1715   1717     1   0.13240 420073.600000
   1714   1715     1   0.13240 420073.600000
   1710   1711     1   0.13400 402500.800000
   1710   1714     1   0.13390 404174.400000
   1709   1710     1   0.14040 392459.200000
   1709   1718     1   0.13700 435136.000000
   1708   1709     1   0.13910 346435.200000
   1706   1708     1   0.13040 442667.200000
   1705   1706     1   0.13710 368192.000000
   1705   1718     1   0.13740 364844.800000
   1703   1705     1   0.14750 282001.600000
   1703   1721     1   0.15260 259408.000000
   1702   1703     1   0.14100 267776.000000
   1700   1702     1   0.14100 267776.000000
   1700   1719     1   0.15260 259408.000000
   1697   1700     1   0.15260 259408.000000
   1696   1697     1   0.14100 267776.000000
   1693   1694     1   0.14800 439320.000000
   1693   1695     1   0.14800 439320.000000
   1693   1696     1   0.16100 192464.000000
   1759   1760     1   0.16100 192464.000000
   1755   1757     1   0.14100 267776.000000
   1753   1755     1   0.15260 259408.000000
   1753   1759     1   0.14100 267776.000000
   1751   1752     1   0.13540 385764.800000
   1747   1748     1   0.13400 402500.800000
   1747   1751     1   0.13390 404174.400000
   1745   1747     1   0.13810 357313.600000
   1743   1744     1   0.12290 476976.000000
   1743   1745     1   0.13880 349782.400000
   1742   1743     1   0.14190 374049.600000
   1742   1752     1   0.13700 435136.000000
   1741   1742     1   0.13910 346435.200000
   1739   1741     1   0.13040 442667.200000
   1738   1739     1   0.13710 368192.000000
   1738   1752     1   0.13740 364844.800000
   1736   1738     1   0.14750 282001.600000
   1736   1755     1   0.15260 259408.000000
   1735   1736     1   0.14100 267776.000000
   1733   1735     1   0.14100 267776.000000
   1733   1753     1   0.15260 259408.000000
   1730   1733     1   0.15260 259408.000000
   1729   1730     1   0.14100 267776.000000
   1726   1727     1   0.14800 439320.000000
   1726   1728     1   0.14800 439320.000000
   1726   1729     1   0.16100 192464.000000
   1793   1794     1   0.16100 192464.000000
   1789   1791     1   0.14100 267776.000000
   1787   1789     1   0.15260 259408.000000
   1787   1793     1   0.14100 267776.000000
   1785   1786     1   0.13540 385764.800000
   1781   1782     1   0.13400 402500.800000
   1781   1785     1   0.13390 404174.400000
   1779   1781     1   0.13810 357313.600000
   1777   1778     1   0.12290 476976.000000
   1777   1779     1   0.13880 349782.400000
   1776   1777     1   0.14190 374049.600000
   1776   1786     1   0.13700 435136.000000
   1775   1776     1   0.13910 346435.200000
   1773   1775     1   0.13040 442667.200000
   1772   1773     1   0.13710 368192.000000
   1772   1786     1   0.13740 364844.800000
   1770   1772     1   0.14750 282001.600000
   1770   1789     1   0.15260 259408.000000
   1769   1770     1   0.14100 267776.000000
   1767   1769     1   0.14100 267776.000000
   1767   1787     1   0.15260 259408.000000
   1764   1767     1   0.15260 259408.000000
   1763   1764     1   0.14100 267776.000000
   1760   1761     1   0.14800 439320.000000
   1760   1762     1   0.14800 439320.000000
   1760   1763     1   0.16100 192464.000000
   1824   1825     1   0.16100 192464.000000
   1820   1822     1   0.14100 267776.000000
   1818   1820     1   0.15260 259408.000000
   1818   1824     1   0.14100 267776.000000
   1816   1817     1   0.12290 476976.000000
   1815   1816     1   0.13580 382417.600000
   1811   1812     1   0.13400 402500.800000
   1811   1815     1   0.13390 404174.400000
   1809   1811     1   0.14330 357313.600000
   1807   1809     1   0.13500 459403.200000
   1806   1807     1   0.13650 374886.400000
   1806   1816     1   0.13830 354803.200000
   1804   1806     1   0.14750 282001.600000
   1804   1820     1   0.15260 259408.000000
   1803   1804     1   0.14100 267776.000000
   1801   1803     1   0.14100 267776.000000
   1801   1818     1   0.15260 259408.000000
   1798   1801     1   0.15260 259408.000000
   1797   1798     1   0.14100 267776.000000
   1794   1795     1   0.14800 439320.000000
   1794   1796     1   0.14800 439320.000000
   1794   1797     1   0.16100 192464.000000
   1857   1858     1   0.16100 192464.000000
   1853   1855     1   0.14100 267776.000000
   1851   1853     1   0.15260 259408.000000
   1851   1857     1   0.14100 267776.000000
   1849   1850     1   0.13540 385764.800000
   1847   1849     1   0.13240 420073.600000
   1846   1847     1   0.13240 420073.600000
   1842   1843     1   0.13400 402500.800000
   1842   1846     1   0.13390 404174.400000
   1841   1842     1   0.14040 392459.200000
   1841   1850     1   0.13700 435136.000000
   1840   1841     1   0.13910 346435.200000
   1838   1840     1   0.13040 442667.200000
   1837   1838     1   0.13710 368192.000000
   1837   1850     1   0.13740 364844.800000
   1835   1837     1   0.14750 282001.600000
   1835   1853     1   0.15260 259408.000000
   1834   1835     1   0.14100 267776.000000
   1832   1834     1   0.14100 267776.000000
   1832   1851     1   0.15260 259408.000000
   1829   1832     1   0.15260 259408.000000
   1828   1829     1   0.14100 267776.000000
   1825   1826     1   0.14800 439320.000000
   1825   1827     1   0.14800 439320.000000
   1825   1828     1   0.16100 192464.000000
   1888   1889     1   0.16100 192464.000000
   1884   1886     1   0.14100 267776.000000
   1882   1884     1   0.15260 259408.000000
   1882   1888     1   0.14100 267776.000000
   1880   1881     1   0.12290 476976.000000
   1879   1880     1   0.13580 382417.600000
   1875   1876     1   0.13400 402500.800000
   1875   1879     1   0.13390 404174.400000
   1873   1875     1   0.14330 357313.600000
   1871   1873     1   0.13500 459403.200000
   1870   1871     1   0.13650 374886.400000
   1870   1880     1   0.13830 354803.200000
   1868   1870     1   0.14750 282001.600000
   1868   1884     1   0.15260 259408.000000
   1867   1868     1   0.14100 267776.000000
   1865   1867     1   0.14100 267776.000000
   1865   1882     1   0.15260 259408.000000
   1862   1865     1   0.15260 259408.000000
   1861   1862     1   0.14100 267776.000000
   1858   1859     1   0.14800 439320.000000
   1858   1860     1   0.14800 439320.000000
   1858   1861     1   0.16100 192464.000000
   1918   1919     1   0.16100 192464.000000
   1914   1916     1   0.14100 267776.000000
   1912   1914     1   0.15260 259408.000000
   1912   1918     1   0.14100 267776.000000
   1910   1911     1   0.12290 476976.000000
   1908   1910     1   0.13880 349782.400000
   1906   1907     1   0.12290 476976.000000
   1906   1908     1   0.13880 349782.400000
   1904   1906     1   0.14440 343088.000000
   1902   1904     1   0.13500 459403.200000
   1901   1902     1   0.13650 374886.400000
   1901   1910     1   0.13830 354803.200000
   1899   1901     1   0.14750 282001.600000
   1899   1914     1   0.15260 259408.000000
   1898   1899     1   0.14100 267776.000000
   1896   1898     1   0.14100 267776.000000
   1896   1912     1   0.15260 259408.000000
   1893   1896     1   0.15260 259408.000000
   1892   1893     1   0.14100 267776.000000
   1889   1890     1   0.14800 439320.000000
   1889   1891     1   0.14800 439320.000000
   1889   1892     1   0.16100 192464.000000
   1951   1952     1   0.16100 192464.000000
   1947   1949     1   0.14100 267776.000000
   1945   1947     1   0.15260 259408.000000
   1945   1951     1   0.14100 267776.000000
   1943   1944     1   0.13540 385764.800000
   1941   1943     1   0.13240 420073.600000
   1940   1941     1   0.13240 420073.600000
   1936   1937     1   0.13400 402500.800000
   1936   1940     1   0.13390 404174.400000
   1935   1936     1   0.14040 392459.200000
   1935   1944     1   0.13700 435136.000000
   1934   1935     1   0.13910 346435.200000
   1932   1934     1   0.13040 442667.200000
   1931   1932     1   0.13710 368192.000000
   1931   1944     1   0.13740 364844.800000
   1929   1931     1   0.14750 282001.600000
   1929   1947     1   0.15260 259408.000000
   1928   1929     1   0.14100 267776.000000
   1926   1928     1   0.14100 267776.000000
   1926   1945     1   0.15260 259408.000000
   1923   1926     1   0.15260 259408.000000
   1922   1923     1   0.14100 267776.000000
   1919   1920     1   0.14800 439320.000000
   1919   1921     1   0.14800 439320.000000
   1919   1922     1   0.16100 192464.000000
   1985   1986     1   0.16100 192464.000000
   1981   1983     1   0.14100 267776.000000
   1979   1981     1   0.15260 259408.000000
   1979   1985     1   0.14100 267776.000000
   1977   1978     1   0.13540 385764.800000
   1973   1974     1   0.13400 402500.800000
   1973   1977     1   0.13390 404174.400000
   1971   1973     1   0.13810 357313.600000
   1969   1970     1   0.12290 476976.000000
   1969   1971     1   0.13880 349782.400000
   1968   1969     1   0.14190 374049.600000
   1968   1978     1   0.13700 435136.000000
   1967   1968     1   0.13910 346435.200000
   1965   1967     1   0.13040 442667.200000
   1964   1965     1   0.13710 368192.000000
   1964   1978     1   0.13740 364844.800000
   1962   1964     1   0.14750 282001.600000
   1962   1981     1   0.15260 259408.000000
   1961   1962     1   0.14100 267776.000000
   1959   1961     1   0.14100 267776.000000
   1959   1979     1   0.15260 259408.000000
   1956   1959     1   0.15260 259408.000000
   1955   1956     1   0.14100 267776.000000
   1952   1953     1   0.14800 439320.000000
   1952   1954     1   0.14800 439320.000000
   1952   1955     1   0.16100 192464.000000
   2015   2016     1   0.16100 192464.000000
   2011   2013     1   0.14100 267776.000000
   2009   2011     1   0.15260 259408.000000
   2009   2015     1   0.14100 267776.000000
   2007   2008     1   0.12290 476976.000000
   2005   2007     1   0.13880 349782.400000
   2003   2004     1   0.12290 476976.000000
   2003   2005     1   0.13880 349782.400000
   2001   2003     1   0.14440 343088.000000
   1999   2001     1   0.13500 459403.200000
   1998   1999     1   0.13650 374886.400000
   1998   2007     1   0.13830 354803.200000
   1996   1998     1   0.14750 282001.600000
   1996   2011     1   0.15260 259408.000000
   1995   1996     1   0.14100 267776.000000
   1993   1995     1   0.14100 267776.000000
   1993   2009     1   0.15260 259408.000000
   1990   1993     1   0.15260 259408.000000
   1989   1990     1   0.14100 267776.000000
   1986   1987     1   0.14800 439320.000000
   1986   1988     1   0.14800 439320.000000
   1986   1989     1   0.16100 192464.000000
   2048   2049     1   0.16100 192464.000000
   2044   2046     1   0.14100 267776.000000
   2042   2044     1   0.15260 259408.000000
   2042   2048     1   0.14100 267776.000000
   2040   2041     1   0.13540 385764.800000
   2038   2040     1   0.13240 420073.600000
   2037   2038     1   0.13240 420073.600000
   2033   2034     1   0.13400 402500.800000
   2033   2037     1   0.13390 404174.400000
   2032   2033     1   0.14040 392459.200000
   2032   2041     1   0.13700 435136.000000
   2031   2032     1   0.13910 346435.200000
   2029   2031     1   0.13040 442667.200000
   2028   2029     1   0.13710 368192.000000
   2028   2041     1   0.13740 364844.800000
   2026   2028     1   0.14750 282001.600000
   2026   2044     1   0.15260 259408.000000
   2025   2026     1   0.14100 267776.000000
   2023   2025     1   0.14100 267776.000000
   2023   2042     1   0.15260 259408.000000
   2020   2023     1   0.15260 259408.000000
   2019   2020     1   0.14100 267776.000000
   2016   2017     1   0.14800 439320.000000
   2016   2018     1   0.14800 439320.000000
   2016   2019     1   0.16100 192464.000000
   2079   2080     1   0.16100 192464.000000
   2075   2077     1   0.14100 267776.000000
   2073   2075     1   0.15260 259408.000000
   2073   2079     1   0.14100 267776.000000
   2071   2072     1   0.12290 476976.000000
   2070   2071     1   0.13580 382417.600000
   2066   2067     1   0.13400 402500.800000
   2066   2070     1   0.13390 404174.400000
   2064   2066     1   0.14330 357313.600000
   2062   2064     1   0.13500 459403.200000
   2061   2062     1   0.13650 374886.400000
   2061   2071     1   0.13830 354803.200000
   2059   2061     1   0.14750 282001.600000
   2059   2075     1   0.15260 259408.000000
   2058   2059     1   0.14100 267776.000000
   2056   2058     1   0.14100 267776.000000
   2056   2073     1   0.15260 259408.000000
   2053   2056     1   0.15260 259408.000000
   2052   2053     1   0.14100 267776.000000
   2049   2050     1   0.14800 439320.000000
   2049   2051     1   0.14800 439320.000000
   2049   2052     1   0.16100 192464.000000
   2109   2110     1   0.16100 192464.000000
   2105   2107     1   0.14100 267776.000000
   2103   2105     1   0.15260 259408.000000
   2103   2109     1   0.14100 267776.000000
   2101   2102     1   0.12290 476976.000000
   2099   2101     1   0.13880 349782.400000
   2097   2098     1   0.12290 476976.000000
   2097   2099     1   0.13880 349782.400000
   2095   2097     1   0.14440 343088.000000
   2093   2095     1   0.13500 459403.200000
   2092   2093     1   0.13650 374886.400000
   2092   2101     1   0.13830 354803.200000
   2090   2092     1   0.14750 282001.600000
   2090   2105     1   0.15260 259408.000000
   2089   2090     1   0.14100 267776.000000
   2087   2089     1   0.14100 267776.000000
   2087   2103     1   0.15260 259408.000000
   2084   2087     1   0.15260 259408.000000
   2083   2084     1   0.14100 267776.000000
   2080   2081     1   0.14800 439320.000000
   2080   2082     1   0.14800 439320.000000
   2080   2083     1   0.16100 192464.000000
   2143   2144     1   0.16100 192464.000000
   2139   2141     1   0.14100 267776.000000
   2137   2139     1   0.15260 259408.000000
   2137   2143     1   0.14100 267776.000000
   2135   2136     1   0.13540 385764.800000
   2131   2132     1   0.13400 402500.800000
   2131   2135     1   0.13390 404174.400000
   2129   2131     1   0.13810 357313.600000
   2127   2128     1   0.12290 476976.000000
   2127   2129     1   0.13880 349782.400000
   2126   2127     1   0.14190 374049.600000
   2126   2136     1   0.13700 435136.000000
   2125   2126     1   0.13910 346435.200000
   2123   2125     1   0.13040 442667.200000
   2122   2123     1   0.13710 368192.000000
   2122   2136     1   0.13740 364844.800000
   2120   2122     1   0.14750 282001.600000
   2120   2139     1   0.15260 259408.000000
   2119   2120     1   0.14100 267776.000000
   2117   2119     1   0.14100 267776.000000
   2117   2137     1   0.15260 259408.000000
   2114   2117     1   0.15260 259408.000000
   2113   2114     1   0.14100 267776.000000
   2110   2111     1   0.14800 439320.000000
   2110   2112     1   0.14800 439320.000000
   2110   2113     1   0.16100 192464.000000
   2176   2177     1   0.16100 192464.000000
   2172   2174     1   0.14100 267776.000000
   2170   2172     1   0.15260 259408.000000
   2170   2176     1   0.14100 267776.000000
   2168   2169     1   0.13540 385764.800000
   2166   2168     1   0.13240 420073.600000
   2165   2166     1   0.13240 420073.600000
   2161   2162     1   0.13400 402500.800000
   2161   2165     1   0.13390 404174.400000
   2160   2161     1   0.14040 392459.200000
   2160   2169     1   0.13700 435136.000000
   2159   2160     1   0.13910 346435.200000
   2157   2159     1   0.13040 442667.200000
   2156   2157     1   0.13710 368192.000000
   2156   2169     1   0.13740 364844.800000
   2154   2156     1   0.14750 282001.600000
   2154   2172     1   0.15260 259408.000000
   2153   2154     1   0.14100 267776.000000
   2151   2153     1   0.14100 267776.000000
   2151   2170     1   0.15260 259408.000000
   2148   2151     1   0.15260 259408.000000
   2147   2148     1   0.14100 267776.000000
   2144   2145     1   0.14800 439320.000000
   2144   2146     1   0.14800 439320.000000
   2144   2147     1   0.16100 192464.000000
   2206   2207     1   0.16100 192464.000000
   2202   2204     1   0.14100 267776.000000
   2200   2202     1   0.15260 259408.000000
   2200   2206     1   0.14100 267776.000000
   2198   2199     1   0.12290 476976.000000
   2196   2198     1   0.13880 349782.400000
   2194   2195     1   0.12290 476976.000000
   2194   2196     1   0.13880 349782.400000
   2192   2194     1   0.14440 343088.000000
   2190   2192     1   0.13500 459403.200000
   2189   2190     1   0.13650 374886.400000
   2189   2198     1   0.13830 354803.200000
   2187   2189     1   0.14750 282001.600000
   2187   2202     1   0.15260 259408.000000
   2186   2187     1   0.14100 267776.000000
   2184   2186     1   0.14100 267776.000000
   2184   2200     1   0.15260 259408.000000
   2181   2184     1   0.15260 259408.000000
   2180   2181     1   0.14100 267776.000000
   2177   2178     1   0.14800 439320.000000
   2177   2179     1   0.14800 439320.000000
   2177   2180     1   0.16100 192464.000000
   2240   2241     1   0.16100 192464.000000
   2236   2238     1   0.14100 267776.000000
   2234   2236     1   0.15260 259408.000000
   2234   2240     1   0.14100 267776.000000
   2232   2233     1   0.13540 385764.800000
   2228   2229     1   0.13400 402500.800000
   2228   2232     1   0.13390 404174.400000
   2226   2228     1   0.13810 357313.600000
   2224   2225     1   0.12290 476976.000000
   2224   2226     1   0.13880 349782.400000
   2223   2224     1   0.14190 374049.600000
   2223   2233     1   0.13700 435136.000000
   2222   2223     1   0.13910 346435.200000
   2220   2222     1   0.13040 442667.200000
   2219   2220     1   0.13710 368192.000000
   2219   2233     1   0.13740 364844.800000
   2217   2219     1   0.14750 282001.600000
   2217   2236     1   0.15260 259408.000000
   2216   2217     1   0.14100 267776.000000
   2214   2216     1   0.14100 267776.000000
   2214   2234     1   0.15260 259408.000000
   2211   2214     1   0.15260 259408.000000
   2210   2211     1   0.14100 267776.000000
   2207   2208     1   0.14800 439320.000000
   2207   2209     1   0.14800 439320.000000
   2207   2210     1   0.16100 192464.000000
   2270   2271     1   0.16100 192464.000000
   2266   2268     1   0.14100 267776.000000
   2264   2266     1   0.15260 259408.000000
   2264   2270     1   0.14100 267776.000000
   2262   2263     1   0.12290 476976.000000
   2260   2262     1   0.13880 349782.400000
   2258   2259     1   0.12290 476976.000000
   2258   2260     1   0.13880 349782.400000
   2256   2258     1   0.14440 343088.000000
   2254   2256     1   0.13500 459403.200000
   2253   2254     1   0.13650 374886.400000
   2253   2262     1   0.13830 354803.200000
   2251   2253     1   0.14750 282001.600000
   2251   2266     1   0.15260 259408.000000
   2250   2251     1   0.14100 267776.000000
   2248   2250     1   0.14100 267776.000000
   2248   2264     1   0.15260 259408.000000
   2245   2248     1   0.15260 259408.000000
   2244   2245     1   0.14100 267776.000000
   2241   2242     1   0.14800 439320.000000
   2241   2243     1   0.14800 439320.000000
   2241   2244     1   0.16100 192464.000000
   2301   2302     1   0.16100 192464.000000
   2297   2299     1   0.14100 267776.000000
   2295   2297     1   0.15260 259408.000000
   2295   2301     1   0.14100 267776.000000
   2293   2294     1   0.12290 476976.000000
   2292   2293     1   0.13580 382417.600000
   2288   2289     1   0.13400 402500.800000
   2288   2292     1   0.13390 404174.400000
   2286   2288     1   0.14330 357313.600000
   2284   2286     1   0.13500 459403.200000
   2283   2284     1   0.13650 374886.400000
   2283   2293     1   0.13830 354803.200000
   2281   2283     1   0.14750 282001.600000
   2281   2297     1   0.15260 259408.000000
   2280   2281     1   0.14100 267776.000000
   2278   2280     1   0.14100 267776.000000
   2278   2295     1   0.15260 259408.000000
   2275   2278     1   0.15260 259408.000000
   2274   2275     1   0.14100 267776.000000
   2271   2272     1   0.14800 439320.000000
   2271   2273     1   0.14800 439320.000000
   2271   2274     1   0.16100 192464.000000
   2335   2336     1   0.16100 192464.000000
   2331   2333     1   0.14100 267776.000000
   2329   2331     1   0.15260 259408.000000
   2329   2335     1   0.14100 267776.000000
   2327   2328     1   0.13540 385764.800000
   2323   2324     1   0.13400 402500.800000
   2323   2327     1   0.13390 404174.400000
   2321   2323     1   0.13810 357313.600000
   2319   2320     1   0.12290 476976.000000
   2319   2321     1   0.13880 349782.400000
   2318   2319     1   0.14190 374049.600000
   2318   2328     1   0.13700 435136.000000
   2317   2318     1   0.13910 346435.200000
   2315   2317     1   0.13040 442667.200000
   2314   2315     1   0.13710 368192.000000
   2314   2328     1   0.13740 364844.800000
   2312   2314     1   0.14750 282001.600000
   2312   2331     1   0.15260 259408.000000
   2311   2312     1   0.14100 267776.000000
   2309   2311     1   0.14100 267776.000000
   2309   2329     1   0.15260 259408.000000
   2306   2309     1   0.15260 259408.000000
   2305   2306     1   0.14100 267776.000000
   2302   2303     1   0.14800 439320.000000
   2302   2304     1   0.14800 439320.000000
   2302   2305     1   0.16100 192464.000000
   2365   2366     1   0.16100 192464.000000
   2361   2363     1   0.14100 267776.000000
   2359   2361     1   0.15260 259408.000000
   2359   2365     1   0.14100 267776.000000
   2357   2358     1   0.12290 476976.000000
   2355   2357     1   0.13880 349782.400000
   2353   2354     1   0.12290 476976.000000
   2353   2355     1   0.13880 349782.400000
   2351   2353     1   0.14440 343088.000000
   2349   2351     1   0.13500 459403.200000
   2348   2349     1   0.13650 374886.400000
   2348   2357     1   0.13830 354803.200000
   2346   2348     1   0.14750 282001.600000
   2346   2361     1   0.15260 259408.000000
   2345   2346     1   0.14100 267776.000000
   2343   2345     1   0.14100 267776.000000
   2343   2359     1   0.15260 259408.000000
   2340   2343     1   0.15260 259408.000000
   2339   2340     1   0.14100 267776.000000
   2336   2337     1   0.14800 439320.000000
   2336   2338     1   0.14800 439320.000000
   2336   2339     1   0.16100 192464.000000
   2398   2399     1   0.16100 192464.000000
   2394   2396     1   0.14100 267776.000000
   2392   2394     1   0.15260 259408.000000
   2392   2398     1   0.14100 267776.000000
   2390   2391     1   0.13540 385764.800000
   2388   2390     1   0.13240 420073.600000
   2387   2388     1   0.13240 420073.600000
   2383   2384     1   0.13400 402500.800000
   2383   2387     1   0.13390 404174.400000
   2382   2383     1   0.14040 392459.200000
   2382   2391     1   0.13700 435136.000000
   2381   2382     1   0.13910 346435.200000
   2379   2381     1   0.13040 442667.200000
   2378   2379     1   0.13710 368192.000000
   2378   2391     1   0.13740 364844.800000
   2376   2378     1   0.14750 282001.600000
   2376   2394     1   0.15260 259408.000000
   2375   2376     1   0.14100 267776.000000
   2373   2375     1   0.14100 267776.000000
   2373   2392     1   0.15260 259408.000000
   2370   2373     1   0.15260 259408.000000
   2369   2370     1   0.14100 267776.000000
   2366   2367     1   0.14800 439320.000000
   2366   2368     1   0.14800 439320.000000
   2366   2369     1   0.16100 192464.000000
   2428   2429     1   0.16100 192464.000000
   2424   2426     1   0.14100 267776.000000
   2422   2424     1   0.15260 259408.000000
   2422   2428     1   0.14100 267776.000000
   2420   2421     1   0.12290 476976.000000
   2418   2420     1   0.13880 349782.400000
   2416   2417     1   0.12290 476976.000000
   2416   2418     1   0.13880 349782.400000
   2414   2416     1   0.14440 343088.000000
   2412   2414     1   0.13500 459403.200000
   2411   2412     1   0.13650 374886.400000
   2411   2420     1   0.13830 354803.200000
   2409   2411     1   0.14750 282001.600000
   2409   2424     1   0.15260 259408.000000
   2408   2409     1   0.14100 267776.000000
   2406   2408     1   0.14100 267776.000000
   2406   2422     1   0.15260 259408.000000
   2403   2406     1   0.15260 259408.000000
   2402   2403     1   0.14100 267776.000000
   2399   2400     1   0.14800 439320.000000
   2399   2401     1   0.14800 439320.000000
   2399   2402     1   0.16100 192464.000000
   2461   2462     1   0.16100 192464.000000
   2457   2459     1   0.14100 267776.000000
   2455   2457     1   0.15260 259408.000000
   2455   2461     1   0.14100 267776.000000
   2453   2454     1   0.13540 385764.800000
   2451   2453     1   0.13240 420073.600000
   2450   2451     1   0.13240 420073.600000
   2446   2447     1   0.13400 402500.800000
   2446   2450     1   0.13390 404174.400000
   2445   2446     1   0.14040 392459.200000
   2445   2454     1   0.13700 435136.000000
   2444   2445     1   0.13910 346435.200000
   2442   2444     1   0.13040 442667.200000
   2441   2442     1   0.13710 368192.000000
   2441   2454     1   0.13740 364844.800000
   2439   2441     1   0.14750 282001.600000
   2439   2457     1   0.15260 259408.000000
   2438   2439     1   0.14100 267776.000000
   2436   2438     1   0.14100 267776.000000
   2436   2455     1   0.15260 259408.000000
   2433   2436     1   0.15260 259408.000000
   2432   2433     1   0.14100 267776.000000
   2429   2430     1   0.14800 439320.000000
   2429   2431     1   0.14800 439320.000000
   2429   2432     1   0.16100 192464.000000
   2492   2493     1   0.16100 192464.000000
   2488   2490     1   0.14100 267776.000000
   2486   2488     1   0.15260 259408.000000
   2486   2492     1   0.14100 267776.000000
   2484   2485     1   0.12290 476976.000000
   2483   2484     1   0.13580 382417.600000
   2479   2480     1   0.13400 402500.800000
   2479   2483     1   0.13390 404174.400000
   2477   2479     1   0.14330 357313.600000
   2475   2477     1   0.13500 459403.200000
   2474   2475     1   0.13650 374886.400000
   2474   2484     1   0.13830 354803.200000
   2472   2474     1   0.14750 282001.600000
   2472   2488     1   0.15260 259408.000000
   2471   2472     1   0.14100 267776.000000
   2469   2471     1   0.14100 267776.000000
   2469   2486     1   0.15260 259408.000000
   2466   2469     1   0.15260 259408.000000
   2465   2466     1   0.14100 267776.000000
   2462   2463     1   0.14800 439320.000000
   2462   2464     1   0.14800 439320.000000
   2462   2465     1   0.16100 192464.000000
   2525   2526     1   0.16100 192464.000000
   2521   2523     1   0.14100 267776.000000
   2519   2521     1   0.15260 259408.000000
   2519   2525     1   0.14100 267776.000000
   2517   2518     1   0.13540 385764.800000
   2515   2517     1   0.13240 420073.600000
   2514   2515     1   0.13240 420073.600000
   2510   2511     1   0.13400 402500.800000
   2510   2514     1   0.13390 404174.400000
   2509   2510     1   0.14040 392459.200000
   2509   2518     1   0.13700 435136.000000
   2508   2509     1   0.13910 346435.200000
   2506   2508     1   0.13040 442667.200000
   2505   2506     1   0.13710 368192.000000
   2505   2518     1   0.13740 364844.800000
   2503   2505     1   0.14750 282001.600000
   2503   2521     1   0.15260 259408.000000
   2502   2503     1   0.14100 267776.000000
   2500   2502     1   0.14100 267776.000000
   2500   2519     1   0.15260 259408.000000
   2497   2500     1   0.15260 259408.000000
   2496   2497     1   0.14100 267776.000000
   2493   2494     1   0.14800 439320.000000
   2493   2495     1   0.14800 439320.000000
   2493   2496     1   0.16100 192464.000000
   2559   2560     1   0.16100 192464.000000
   2555   2557     1   0.14100 267776.000000
   2553   2555     1   0.15260 259408.000000
   2553   2559     1   0.14100 267776.000000
   2551   2552     1   0.13540 385764.800000
   2547   2548     1   0.13400 402500.800000
   2547   2551     1   0.13390 404174.400000
   2545   2547     1   0.13810 357313.600000
   2543   2544     1   0.12290 476976.000000
   2543   2545     1   0.13880 349782.400000
   2542   2543     1   0.14190 374049.600000
   2542   2552     1   0.13700 435136.000000
   2541   2542     1   0.13910 346435.200000
   2539   2541     1   0.13040 442667.200000
   2538   2539     1   0.13710 368192.000000
   2538   2552     1   0.13740 364844.800000
   2536   2538     1   0.14750 282001.600000
   2536   2555     1   0.15260 259408.000000
   2535   2536     1   0.14100 267776.000000
   2533   2535     1   0.14100 267776.000000
   2533   2553     1   0.15260 259408.000000
   2530   2533     1   0.15260 259408.000000
   2529   2530     1   0.14100 267776.000000
   2526   2527     1   0.14800 439320.000000
   2526   2528     1   0.14800 439320.000000
   2526   2529     1   0.16100 192464.000000
   2593   2594     1   0.16100 192464.000000
   2589   2591     1   0.14100 267776.000000
   2587   2589     1   0.15260 259408.000000
   2587   2593     1   0.14100 267776.000000
   2585   2586     1   0.13540 385764.800000
   2581   2582     1   0.13400 402500.800000
   2581   2585     1   0.13390 404174.400000
   2579   2581     1   0.13810 357313.600000
   2577   2578     1   0.12290 476976.000000
   2577   2579     1   0.13880 349782.400000
   2576   2577     1   0.14190 374049.600000
   2576   2586     1   0.13700 435136.000000
   2575   2576     1   0.13910 346435.200000
   2573   2575     1   0.13040 442667.200000
   2572   2573     1   0.13710 368192.000000
   2572   2586     1   0.13740 364844.800000
   2570   2572     1   0.14750 282001.600000
   2570   2589     1   0.15260 259408.000000
   2569   2570     1   0.14100 267776.000000
   2567   2569     1   0.14100 267776.000000
   2567   2587     1   0.15260 259408.000000
   2564   2567     1   0.15260 259408.000000
   2563   2564     1   0.14100 267776.000000
   2560   2561     1   0.14800 439320.000000
   2560   2562     1   0.14800 439320.000000
   2560   2563     1   0.16100 192464.000000
   2627   2628     1   0.16100 192464.000000
   2623   2625     1   0.14100 267776.000000
   2621   2623     1   0.15260 259408.000000
   2621   2627     1   0.14100 267776.000000
   2619   2620     1   0.13540 385764.800000
   2615   2616     1   0.13400 402500.800000
   2615   2619     1   0.13390 404174.400000
   2613   2615     1   0.13810 357313.600000
   2611   2612     1   0.12290 476976.000000
   2611   2613     1   0.13880 349782.400000
   2610   2611     1   0.14190 374049.600000
   2610   2620     1   0.13700 435136.000000
   2609   2610     1   0.13910 346435.200000
   2607   2609     1   0.13040 442667.200000
   2606   2607     1   0.13710 368192.000000
   2606   2620     1   0.13740 364844.800000
   2604   2606     1   0.14750 282001.600000
   2604   2623     1   0.15260 259408.000000
   2603   2604     1   0.14100 267776.000000
   2601   2603     1   0.14100 267776.000000
   2601   2621     1   0.15260 259408.000000
   2598   2601     1   0.15260 259408.000000
   2597   2598     1   0.14100 267776.000000
   2594   2595     1   0.14800 439320.000000
   2594   2596     1   0.14800 439320.000000
   2594   2597     1   0.16100 192464.000000
   2658   2659     1   0.16100 192464.000000
   2654   2656     1   0.14100 267776.000000
   2652   2654     1   0.15260 259408.000000
   2652   2658     1   0.14100 267776.000000
   2650   2651     1   0.12290 476976.000000
   2649   2650     1   0.13580 382417.600000
   2645   2646     1   0.13400 402500.800000
   2645   2649     1   0.13390 404174.400000
   2643   2645     1   0.14330 357313.600000
   2641   2643     1   0.13500 459403.200000
   2640   2641     1   0.13650 374886.400000
   2640   2650     1   0.13830 354803.200000
   2638   2640     1   0.14750 282001.600000
   2638   2654     1   0.15260 259408.000000
   2637   2638     1   0.14100 267776.000000
   2635   2637     1   0.14100 267776.000000
   2635   2652     1   0.15260 259408.000000
   2632   2635     1   0.15260 259408.000000
   2631   2632     1   0.14100 267776.000000
   2628   2629     1   0.14800 439320.000000
   2628   2630     1   0.14800 439320.000000
   2628   2631     1   0.16100 192464.000000
   2688   2689     1   0.16100 192464.000000
   2684   2686     1   0.14100 267776.000000
   2682   2684     1   0.15260 259408.000000
   2682   2688     1   0.14100 267776.000000
   2680   2681     1   0.12290 476976.000000
   2678   2680     1   0.13880 349782.400000
   2676   2677     1   0.12290 476976.000000
   2676   2678     1   0.13880 349782.400000
   2674   2676     1   0.14440 343088.000000
   2672   2674     1   0.13500 459403.200000
   2671   2672     1   0.13650 374886.400000
   2671   2680     1   0.13830 354803.200000
   2669   2671     1   0.14750 282001.600000
   2669   2684     1   0.15260 259408.000000
   2668   2669     1   0.14100 267776.000000
   2666   2668     1   0.14100 267776.000000
   2666   2682     1   0.15260 259408.000000
   2663   2666     1   0.15260 259408.000000
   2662   2663     1   0.14100 267776.000000
   2659   2660     1   0.14800 439320.000000
   2659   2661     1   0.14800 439320.000000
   2659   2662     1   0.16100 192464.000000
   2718   2719     1   0.16100 192464.000000
   2714   2716     1   0.14100 267776.000000
   2712   2714     1   0.15260 259408.000000
   2712   2718     1   0.14100 267776.000000
   2710   2711     1   0.12290 476976.000000
   2708   2710     1   0.13880 349782.400000
   2706   2707     1   0.12290 476976.000000
   2706   2708     1   0.13880 349782.400000
   2704   2706     1   0.14440 343088.000000
   2702   2704     1   0.13500 459403.200000
   2701   2702     1   0.13650 374886.400000
   2701   2710     1   0.13830 354803.200000
   2699   2701     1   0.14750 282001.600000
   2699   2714     1   0.15260 259408.000000
   2698   2699     1   0.14100 267776.000000
   2696   2698     1   0.14100 267776.000000
   2696   2712     1   0.15260 259408.000000
   2693   2696     1   0.15260 259408.000000
   2692   2693     1   0.14100 267776.000000
   2689   2690     1   0.14800 439320.000000
   2689   2691     1   0.14800 439320.000000
   2689   2692     1   0.16100 192464.000000
   2748   2749     1   0.16100 192464.000000
   2744   2746     1   0.14100 267776.000000
   2742   2744     1   0.15260 259408.000000
   2742   2748     1   0.14100 267776.000000
   2740   2741     1   0.12290 476976.000000
   2738   2740     1   0.13880 349782.400000
   2736   2737     1   0.12290 476976.000000
   2736   2738     1   0.13880 349782.400000
   2734   2736     1   0.14440 343088.000000
   2732   2734     1   0.13500 459403.200000
   2731   2732     1   0.13650 374886.400000
   2731   2740     1   0.13830 354803.200000
   2729   2731     1   0.14750 282001.600000
   2729   2744     1   0.15260 259408.000000
   2728   2729     1   0.14100 267776.000000
   2726   2728     1   0.14100 267776.000000
   2726   2742     1   0.15260 259408.000000
   2723   2726     1   0.15260 259408.000000
   2722   2723     1   0.14100 267776.000000
   2719   2720     1   0.14800 439320.000000
   2719   2721     1   0.14800 439320.000000
   2719   2722     1   0.16100 192464.000000
   2774   2776     1   0.14100 267776.000000
   2772   2774     1   0.15260 259408.000000
   2772   2778     1   0.14100 267776.000000
   2770   2771     1   0.12290 476976.000000
   2768   2770     1   0.13880 349782.400000
   2766   2767     1   0.12290 476976.000000
   2766   2768     1   0.13880 349782.400000
   2764   2766     1   0.14440 343088.000000
   2762   2764     1   0.13500 459403.200000
   2761   2762     1   0.13650 374886.400000
   2761   2770     1   0.13830 354803.200000
   2759   2761     1   0.14750 282001.600000
   2759   2774     1   0.15260 259408.000000
   2758   2759     1   0.14100 267776.000000
   2756   2758     1   0.14100 267776.000000
   2756   2772     1   0.15260 259408.000000
   2753   2756     1   0.15260 259408.000000
   2752   2753     1   0.14100 267776.000000
   2749   2750     1   0.14800 439320.000000
   2749   2751     1   0.14800 439320.000000
   2749   2752     1   0.16100 192464.000000
     30     31     1   0.09600 462750.400000
     28     29     1   0.10900 284512.000000
     26     27     1   0.10900 284512.000000
     21     22     1   0.10100 363171.200000
     21     23     1   0.10100 363171.200000
     18     19     1   0.10100 363171.200000
     12     13     1   0.10800 307105.600000
      9     10     1   0.10900 284512.000000
      6      7     1   0.10900 284512.000000
      3      4     1   0.10900 284512.000000
      3      5     1   0.10900 284512.000000
      1      2     1   0.09600 462750.400000
     60     61     1   0.09600 462750.400000
     58     59     1   0.10900 284512.000000
     56     57     1   0.10900 284512.000000
     52     53     1   0.10100 363171.200000
     48     49     1   0.10800 307105.600000
     46     47     1   0.10800 307105.600000
     43     44     1   0.10900 284512.000000
     40     41     1   0.10900 284512.000000
     37     38     1   0.10900 284512.000000
     37     39     1   0.10900 284512.000000
     90     91     1   0.09600 462750.400000
     88     89     1   0.10900 284512.000000
     86     87     1   0.10900 284512.000000
     82     83     1   0.10100 363171.200000
     78     79     1   0.10800 307105.600000
     76     77     1   0.10800 307105.600000
     73     74     1   0.10900 284512.000000
     70     71     1   0.10900 284512.000000
     67     68     1   0.10900 284512.000000
     67     69     1   0.10900 284512.000000
    120    121     1   0.09600 462750.400000
    118    119     1   0.10900 284512.000000
    116    117     1   0.10900 284512.000000
    112    113     1   0.10100 363171.200000
    108    109     1   0.10800 307105.600000
    106    107     1   0.10800 307105.600000
    103    104     1   0.10900 284512.000000
    100    101     1   0.10900 284512.000000
     97     98     1   0.10900 284512.000000
     97     99     1   0.10900 284512.000000
    150    151     1   0.09600 462750.400000
    148    149     1   0.10900 284512.000000
    146    147     1   0.10900 284512.000000
    142    143     1   0.10100 363171.200000
    138    139     1   0.10800 307105.600000
    136    137     1   0.10800 307105.600000
    133    134     1   0.10900 284512.000000
    130    131     1   0.10900 284512.000000
    127    128     1   0.10900 284512.000000
    127    129     1   0.10900 284512.000000
    180    181     1   0.09600 462750.400000
    178    179     1   0.10900 284512.000000
    176    177     1   0.10900 284512.000000
    172    173     1   0.10100 363171.200000
    168    169     1   0.10800 307105.600000
    166    167     1   0.10800 307105.600000
    163    164     1   0.10900 284512.000000
    160    161     1   0.10900 284512.000000
    157    158     1   0.10900 284512.000000
    157    159     1   0.10900 284512.000000
    213    214     1   0.09600 462750.400000
    211    212     1   0.10900 284512.000000
    209    210     1   0.10900 284512.000000
    205    206     1   0.10800 307105.600000
    201    202     1   0.10100 363171.200000
    201    203     1   0.10100 363171.200000
    196    197     1   0.10800 307105.600000
    193    194     1   0.10900 284512.000000
    190    191     1   0.10900 284512.000000
    187    188     1   0.10900 284512.000000
    187    189     1   0.10900 284512.000000
    246    247     1   0.09600 462750.400000
    244    245     1   0.10900 284512.000000
    242    243     1   0.10900 284512.000000
    238    239     1   0.10800 307105.600000
    234    235     1   0.10100 363171.200000
    234    236     1   0.10100 363171.200000
    229    230     1   0.10800 307105.600000
    226    227     1   0.10900 284512.000000
    223    224     1   0.10900 284512.000000
    220    221     1   0.10900 284512.000000
    220    222     1   0.10900 284512.000000
    279    280     1   0.09600 462750.400000
    277    278     1   0.10900 284512.000000
    275    276     1   0.10900 284512.000000
    271    272     1   0.10800 307105.600000
    267    268     1   0.10100 363171.200000
    267    269     1   0.10100 363171.200000
    262    263     1   0.10800 307105.600000
    259    260     1   0.10900 284512.000000
    256    257     1   0.10900 284512.000000
    253    254     1   0.10900 284512.000000
    253    255     1   0.10900 284512.000000
    310    311     1   0.09600 462750.400000
    308    309     1   0.10900 284512.000000
    306    307     1   0.10900 284512.000000
    300    301     1   0.10100 363171.200000
    300    302     1   0.10100 363171.200000
    297    298     1   0.10800 307105.600000
    295    296     1   0.10800 307105.600000
    292    293     1   0.10900 284512.000000
    289    290     1   0.10900 284512.000000
    286    287     1   0.10900 284512.000000
    286    288     1   0.10900 284512.000000
    344    345     1   0.09600 462750.400000
    342    343     1   0.10900 284512.000000
    340    341     1   0.10900 284512.000000
    335    336     1   0.10100 363171.200000
    335    337     1   0.10100 363171.200000
    332    333     1   0.10100 363171.200000
    326    327     1   0.10800 307105.600000
    323    324     1   0.10900 284512.000000
    320    321     1   0.10900 284512.000000
    317    318     1   0.10900 284512.000000
    317    319     1   0.10900 284512.000000
    378    379     1   0.09600 462750.400000
    376    377     1   0.10900 284512.000000
    374    375     1   0.10900 284512.000000
    369    370     1   0.10100 363171.200000
    369    371     1   0.10100 363171.200000
    366    367     1   0.10100 363171.200000
    360    361     1   0.10800 307105.600000
    357    358     1   0.10900 284512.000000
    354    355     1   0.10900 284512.000000
    351    352     1   0.10900 284512.000000
    351    353     1   0.10900 284512.000000
    412    413     1   0.09600 462750.400000
    410    411     1   0.10900 284512.000000
    408    409     1   0.10900 284512.000000
    403    404     1   0.10100 363171.200000
    403    405     1   0.10100 363171.200000
    400    401     1   0.10100 363171.200000
    394    395     1   0.10800 307105.600000
    391    392     1   0.10900 284512.000000
    388    389     1   0.10900 284512.000000
    385    386     1   0.10900 284512.000000
    385    387     1   0.10900 284512.000000
    442    443     1   0.09600 462750.400000
    440    441     1   0.10900 284512.000000
    438    439     1   0.10900 284512.000000
    434    435     1   0.10100 363171.200000
    430    431     1   0.10800 307105.600000
    428    429     1   0.10800 307105.600000
    425    426     1   0.10900 284512.000000
    422    423     1   0.10900 284512.000000
    419    420     1   0.10900 284512.000000
    419    421     1   0.10900 284512.000000
    472    473     1   0.09600 462750.400000
    470    471     1   0.10900 284512.000000
    468    469     1   0.10900 284512.000000
    464    465     1   0.10100 363171.200000
    460    461     1   0.10800 307105.600000
    458    459     1   0.10800 307105.600000
    455    456     1   0.10900 284512.000000
    452    453     1   0.10900 284512.000000
    449    450     1   0.10900 284512.000000
    449    451     1   0.10900 284512.000000
    502    503     1   0.09600 462750.400000
    500    501     1   0.10900 284512.000000
    498    499     1   0.10900 284512.000000
    494    495     1   0.10100 363171.200000
    490    491     1   0.10800 307105.600000
    488    489     1   0.10800 307105.600000
    485    486     1   0.10900 284512.000000
    482    483     1   0.10900 284512.000000
    479    480     1   0.10900 284512.000000
    479    481     1   0.10900 284512.000000
    536    537     1   0.09600 462750.400000
    534    535     1   0.10900 284512.000000
    532    533     1   0.10900 284512.000000
    527    528     1   0.10100 363171.200000
    527    529     1   0.10100 363171.200000
    524    525     1   0.10100 363171.200000
    518    519     1   0.10800 307105.600000
    515    516     1   0.10900 284512.000000
    512    513     1   0.10900 284512.000000
    509    510     1   0.10900 284512.000000
    509    511     1   0.10900 284512.000000
    567    568     1   0.09600 462750.400000
    565    566     1   0.10900 284512.000000
    563    564     1   0.10900 284512.000000
    557    558     1   0.10100 363171.200000
    557    559     1   0.10100 363171.200000
    554    555     1   0.10800 307105.600000
    552    553     1   0.10800 307105.600000
    549    550     1   0.10900 284512.000000
    546    547     1   0.10900 284512.000000
    543    544     1   0.10900 284512.000000
    543    545     1   0.10900 284512.000000
    601    602     1   0.09600 462750.400000
    599    600     1   0.10900 284512.000000
    597    598     1   0.10900 284512.000000
    592    593     1   0.10100 363171.200000
    592    594     1   0.10100 363171.200000
    589    590     1   0.10100 363171.200000
    583    584     1   0.10800 307105.600000
    580    581     1   0.10900 284512.000000
    577    578     1   0.10900 284512.000000
    574    575     1   0.10900 284512.000000
    574    576     1   0.10900 284512.000000
    635    636     1   0.09600 462750.400000
    633    634     1   0.10900 284512.000000
    631    632     1   0.10900 284512.000000
    626    627     1   0.10100 363171.200000
    626    628     1   0.10100 363171.200000
    623    624     1   0.10100 363171.200000
    617    618     1   0.10800 307105.600000
    614    615     1   0.10900 284512.000000
    611    612     1   0.10900 284512.000000
    608    609     1   0.10900 284512.000000
    608    610     1   0.10900 284512.000000
    665    666     1   0.09600 462750.400000
    663    664     1   0.10900 284512.000000
    661    662     1   0.10900 284512.000000
    657    658     1   0.10100 363171.200000
    653    654     1   0.10800 307105.600000
    651    652     1   0.10800 307105.600000
    648    649     1   0.10900 284512.000000
    645    646     1   0.10900 284512.000000
    642    643     1   0.10900 284512.000000
    642    644     1   0.10900 284512.000000
    699    700     1   0.09600 462750.400000
    697    698     1   0.10900 284512.000000
    695    696     1   0.10900 284512.000000
    690    691     1   0.10100 363171.200000
    690    692     1   0.10100 363171.200000
    687    688     1   0.10100 363171.200000
    681    682     1   0.10800 307105.600000
    678    679     1   0.10900 284512.000000
    675    676     1   0.10900 284512.000000
    672    673     1   0.10900 284512.000000
    672    674     1   0.10900 284512.000000
    729    730     1   0.09600 462750.400000
    727    728     1   0.10900 284512.000000
    725    726     1   0.10900 284512.000000
    721    722     1   0.10100 363171.200000
    717    718     1   0.10800 307105.600000
    715    716     1   0.10800 307105.600000
    712    713     1   0.10900 284512.000000
    709    710     1   0.10900 284512.000000
    706    707     1   0.10900 284512.000000
    706    708     1   0.10900 284512.000000
    762    763     1   0.09600 462750.400000
    760    761     1   0.10900 284512.000000
    758    759     1   0.10900 284512.000000
    754    755     1   0.10800 307105.600000
    750    751     1   0.10100 363171.200000
    750    752     1   0.10100 363171.200000
    745    746     1   0.10800 307105.600000
    742    743     1   0.10900 284512.000000
    739    740     1   0.10900 284512.000000
    736    737     1   0.10900 284512.000000
    736    738     1   0.10900 284512.000000
    795    796     1   0.09600 462750.400000
    793    794     1   0.10900 284512.000000
    791    792     1   0.10900 284512.000000
    787    788     1   0.10800 307105.600000
    783    784     1   0.10100 363171.200000
    783    785     1   0.10100 363171.200000
    778    779     1   0.10800 307105.600000
    775    776     1   0.10900 284512.000000
    772    773     1   0.10900 284512.000000
    769    770     1   0.10900 284512.000000
    769    771     1   0.10900 284512.000000
    829    830     1   0.09600 462750.400000
    827    828     1   0.10900 284512.000000
    825    826     1   0.10900 284512.000000
    820    821     1   0.10100 363171.200000
    820    822     1   0.10100 363171.200000
    817    818     1   0.10100 363171.200000
    811    812     1   0.10800 307105.600000
    808    809     1   0.10900 284512.000000
    805    806     1   0.10900 284512.000000
    802    803     1   0.10900 284512.000000
    802    804     1   0.10900 284512.000000
    859    860     1   0.09600 462750.400000
    857    858     1   0.10900 284512.000000
    855    856     1   0.10900 284512.000000
    851    852     1   0.10100 363171.200000
    847    848     1   0.10800 307105.600000
    845    846     1   0.10800 307105.600000
    842    843     1   0.10900 284512.000000
    839    840     1   0.10900 284512.000000
    836    837     1   0.10900 284512.000000
    836    838     1   0.10900 284512.000000
    893    894     1   0.09600 462750.400000
    891    892     1   0.10900 284512.000000
    889    890     1   0.10900 284512.000000
    884    885     1   0.10100 363171.200000
    884    886     1   0.10100 363171.200000
    881    882     1   0.10100 363171.200000
    875    876     1   0.10800 307105.600000
    872    873     1   0.10900 284512.000000
    869    870     1   0.10900 284512.000000
    866    867     1   0.10900 284512.000000
    866    868     1   0.10900 284512.000000
    924    925     1   0.09600 462750.400000
    922    923     1   0.10900 284512.000000
    920    921     1   0.10900 284512.000000
    914    915     1   0.10100 363171.200000
    914    916     1   0.10100 363171.200000
    911    912     1   0.10800 307105.600000
    909    910     1   0.10800 307105.600000
    906    907     1   0.10900 284512.000000
    903    904     1   0.10900 284512.000000
    900    901     1   0.10900 284512.000000
    900    902     1   0.10900 284512.000000
    957    958     1   0.09600 462750.400000
    955    956     1   0.10900 284512.000000
    953    954     1   0.10900 284512.000000
    949    950     1   0.10800 307105.600000
    945    946     1   0.10100 363171.200000
    945    947     1   0.10100 363171.200000
    940    941     1   0.10800 307105.600000
    937    938     1   0.10900 284512.000000
    934    935     1   0.10900 284512.000000
    931    932     1   0.10900 284512.000000
    931    933     1   0.10900 284512.000000
    991    992     1   0.09600 462750.400000
    989    990     1   0.10900 284512.000000
    987    988     1   0.10900 284512.000000
    982    983     1   0.10100 363171.200000
    982    984     1   0.10100 363171.200000
    979    980     1   0.10100 363171.200000
    973    974     1   0.10800 307105.600000
    970    971     1   0.10900 284512.000000
    967    968     1   0.10900 284512.000000
    964    965     1   0.10900 284512.000000
    964    966     1   0.10900 284512.000000
   1022   1023     1   0.09600 462750.400000
   1020   1021     1   0.10900 284512.000000
   1018   1019     1   0.10900 284512.000000
   1012   1013     1   0.10100 363171.200000
   1012   1014     1   0.10100 363171.200000
   1009   1010     1   0.10800 307105.600000
   1007   1008     1   0.10800 307105.600000
   1004   1005     1   0.10900 284512.000000
   1001   1002     1   0.10900 284512.000000
    998    999     1   0.10900 284512.000000
    998   1000     1   0.10900 284512.000000
   1053   1054     1   0.09600 462750.400000
   1051   1052     1   0.10900 284512.000000
   1049   1050     1   0.10900 284512.000000
   1043   1044     1   0.10100 363171.200000
   1043   1045     1   0.10100 363171.200000
   1040   1041     1   0.10800 307105.600000
   1038   1039     1   0.10800 307105.600000
   1035   1036     1   0.10900 284512.000000
   1032   1033     1   0.10900 284512.000000
   1029   1030     1   0.10900 284512.000000
   1029   1031     1   0.10900 284512.000000
   1084   1085     1   0.09600 462750.400000
   1082   1083     1   0.10900 284512.000000
   1080   1081     1   0.10900 284512.000000
   1074   1075     1   0.10100 363171.200000
   1074   1076     1   0.10100 363171.200000
   1071   1072     1   0.10800 307105.600000
   1069   1070     1   0.10800 307105.600000
   1066   1067     1   0.10900 284512.000000
   1063   1064     1   0.10900 284512.000000
   1060   1061     1   0.10900 284512.000000
   1060   1062     1   0.10900 284512.000000
   1118   1119     1   0.09600 462750.400000
   1116   1117     1   0.10900 284512.000000
   1114   1115     1   0.10900 284512.000000
   1109   1110     1   0.10100 363171.200000
   1109   1111     1   0.10100 363171.200000
   1106   1107     1   0.10100 363171.200000
   1100   1101     1   0.10800 307105.600000
   1097   1098     1   0.10900 284512.000000
   1094   1095     1   0.10900 284512.000000
   1091   1092     1   0.10900 284512.000000
   1091   1093     1   0.10900 284512.000000
   1148   1149     1   0.09600 462750.400000
   1146   1147     1   0.10900 284512.000000
   1144   1145     1   0.10900 284512.000000
   1140   1141     1   0.10100 363171.200000
   1136   1137     1   0.10800 307105.600000
   1134   1135     1   0.10800 307105.600000
   1131   1132     1   0.10900 284512.000000
   1128   1129     1   0.10900 284512.000000
   1125   1126     1   0.10900 284512.000000
   1125   1127     1   0.10900 284512.000000
   1179   1180     1   0.09600 462750.400000
   1177   1178     1   0.10900 284512.000000
   1175   1176     1   0.10900 284512.000000
   1169   1170     1   0.10100 363171.200000
   1169   1171     1   0.10100 363171.200000
   1166   1167     1   0.10800 307105.600000
   1164   1165     1   0.10800 307105.600000
   1161   1162     1   0.10900 284512.000000
   1158   1159     1   0.10900 284512.000000
   1155   1156     1   0.10900 284512.000000
   1155   1157     1   0.10900 284512.000000
   1209   1210     1   0.09600 462750.400000
   1207   1208     1   0.10900 284512.000000
   1205   1206     1   0.10900 284512.000000
   1201   1202     1   0.10100 363171.200000
   1197   1198     1   0.10800 307105.600000
   1195   1196     1   0.10800 307105.600000
   1192   1193     1   0.10900 284512.000000
   1189   1190     1   0.10900 284512.000000
   1186   1187     1   0.10900 284512.000000
   1186   1188     1   0.10900 284512.000000
   1239   1240     1   0.09600 462750.400000
   1237   1238     1   0.10900 284512.000000
   1235   1236     1   0.10900 284512.000000
   1231   1232     1   0.10100 363171.200000
   1227   1228     1   0.10800 307105.600000
   1225   1226     1   0.10800 307105.600000
   1222   1223     1   0.10900 284512.000000
   1219   1220     1   0.10900 284512.000000
   1216   1217     1   0.10900 284512.000000
   1216   1218     1   0.10900 284512.000000
   1272   1273     1   0.09600 462750.400000
   1270   1271     1   0.10900 284512.000000
   1268   1269     1   0.10900 284512.000000
   1264   1265     1   0.10800 307105.600000
   1260   1261     1   0.10100 363171.200000
   1260   1262     1   0.10100 363171.200000
   1255   1256     1   0.10800 307105.600000
   1252   1253     1   0.10900 284512.000000
   1249   1250     1   0.10900 284512.000000
   1246   1247     1   0.10900 284512.000000
   1246   1248     1   0.10900 284512.000000
   1303   1304     1   0.09600 462750.400000
   1301   1302     1   0.10900 284512.000000
   1299   1300     1   0.10900 284512.000000
   1293   1294     1   0.10100 363171.200000
   1293   1295     1   0.10100 363171.200000
   1290   1291     1   0.10800 307105.600000
   1288   1289     1   0.10800 307105.600000
   1285   1286     1   0.10900 284512.000000
   1282   1283     1   0.10900 284512.000000
   1279   1280     1   0.10900 284512.000000
   1279   1281     1   0.10900 284512.000000
   1336   1337     1   0.09600 462750.400000
   1334   1335     1   0.10900 284512.000000
   1332   1333     1   0.10900 284512.000000
   1328   1329     1   0.10800 307105.600000
   1324   1325     1   0.10100 363171.200000
   1324   1326     1   0.10100 363171.200000
   1319   1320     1   0.10800 307105.600000
   1316   1317     1   0.10900 284512.000000
   1313   1314     1   0.10900 284512.000000
   1310   1311     1   0.10900 284512.000000
   1310   1312     1   0.10900 284512.000000
   1367   1368     1   0.09600 462750.400000
   1365   1366     1   0.10900 284512.000000
   1363   1364     1   0.10900 284512.000000
   1357   1358     1   0.10100 363171.200000
   1357   1359     1   0.10100 363171.200000
   1354   1355     1   0.10800 307105.600000
   1352   1353     1   0.10800 307105.600000
   1349   1350     1   0.10900 284512.000000
   1346   1347     1   0.10900 284512.000000
   1343   1344     1   0.10900 284512.000000
   1343   1345     1   0.10900 284512.000000
   1398   1399     1   0.09600 462750.400000
   1396   1397     1   0.10900 284512.000000
   1394   1395     1   0.10900 284512.000000
   1388   1389     1   0.10100 363171.200000
   1388   1390     1   0.10100 363171.200000
   1385   1386     1   0.10800 307105.600000
   1383   1384     1   0.10800 307105.600000
   1380   1381     1   0.10900 284512.000000
   1377   1378     1   0.10900 284512.000000
   1374   1375     1   0.10900 284512.000000
   1374   1376     1   0.10900 284512.000000
   1432   1433     1   0.09600 462750.400000
   1430   1431     1   0.10900 284512.000000
   1428   1429     1   0.10900 284512.000000
   1423   1424     1   0.10100 363171.200000
   1423   1425     1   0.10100 363171.200000
   1420   1421     1   0.10100 363171.200000
   1414   1415     1   0.10800 307105.600000
   1411   1412     1   0.10900 284512.000000
   1408   1409     1   0.10900 284512.000000
   1405   1406     1   0.10900 284512.000000
   1405   1407     1   0.10900 284512.000000
   1462   1463     1   0.09600 462750.400000
   1460   1461     1   0.10900 284512.000000
   1458   1459     1   0.10900 284512.000000
   1454   1455     1   0.10100 363171.200000
   1450   1451     1   0.10800 307105.600000
   1448   1449     1   0.10800 307105.600000
   1445   1446     1   0.10900 284512.000000
   1442   1443     1   0.10900 284512.000000
   1439   1440     1   0.10900 284512.000000
   1439   1441     1   0.10900 284512.000000
   1496   1497     1   0.09600 462750.400000
   1494   1495     1   0.10900 284512.000000
   1492   1493     1   0.10900 284512.000000
   1487   1488     1   0.10100 363171.200000
   1487   1489     1   0.10100 363171.200000
   1484   1485     1   0.10100 363171.200000
   1478   1479     1   0.10800 307105.600000
   1475   1476     1   0.10900 284512.000000
   1472   1473     1   0.10900 284512.000000
   1469   1470     1   0.10900 284512.000000
   1469   1471     1   0.10900 284512.000000
   1527   1528     1   0.09600 462750.400000
   1525   1526     1   0.10900 284512.000000
   1523   1524     1   0.10900 284512.000000
   1517   1518     1   0.10100 363171.200000
   1517   1519     1   0.10100 363171.200000
   1514   1515     1   0.10800 307105.600000
   1512   1513     1   0.10800 307105.600000
   1509   1510     1   0.10900 284512.000000
   1506   1507     1   0.10900 284512.000000
   1503   1504     1   0.10900 284512.000000
   1503   1505     1   0.10900 284512.000000
   1561   1562     1   0.09600 462750.400000
   1559   1560     1   0.10900 284512.000000
   1557   1558     1   0.10900 284512.000000
   1552   1553     1   0.10100 363171.200000
   1552   1554     1   0.10100 363171.200000
   1549   1550     1   0.10100 363171.200000
   1543   1544     1   0.10800 307105.600000
   1540   1541     1   0.10900 284512.000000
   1537   1538     1   0.10900 284512.000000
   1534   1535     1   0.10900 284512.000000
   1534   1536     1   0.10900 284512.000000
   1595   1596     1   0.09600 462750.400000
   1593   1594     1   0.10900 284512.000000
   1591   1592     1   0.10900 284512.000000
   1586   1587     1   0.10100 363171.200000
   1586   1588     1   0.10100 363171.200000
   1583   1584     1   0.10100 363171.200000
   1577   1578     1   0.10800 307105.600000
   1574   1575     1   0.10900 284512.000000
   1571   1572     1   0.10900 284512.000000
   1568   1569     1   0.10900 284512.000000
   1568   1570     1   0.10900 284512.000000
   1626   1627     1   0.09600 462750.400000
   1624   1625     1   0.10900 284512.000000
   1622   1623     1   0.10900 284512.000000
   1616   1617     1   0.10100 363171.200000
   1616   1618     1   0.10100 363171.200000
   1613   1614     1   0.10800 307105.600000
   1611   1612     1   0.10800 307105.600000
   1608   1609     1   0.10900 284512.000000
   1605   1606     1   0.10900 284512.000000
   1602   1603     1   0.10900 284512.000000
   1602   1604     1   0.10900 284512.000000
   1659   1660     1   0.09600 462750.400000
   1657   1658     1   0.10900 284512.000000
   1655   1656     1   0.10900 284512.000000
   1651   1652     1   0.10800 307105.600000
   1647   1648     1   0.10100 363171.200000
   1647   1649     1   0.10100 363171.200000
   1642   1643     1   0.10800 307105.600000
   1639   1640     1   0.10900 284512.000000
   1636   1637     1   0.10900 284512.000000
   1633   1634     1   0.10900 284512.000000
   1633   1635     1   0.10900 284512.000000
   1690   1691     1   0.09600 462750.400000
   1688   1689     1   0.10900 284512.000000
   1686   1687     1   0.10900 284512.000000
   1680   1681     1   0.10100 363171.200000
   1680   1682     1   0.10100 363171.200000
   1677   1678     1   0.10800 307105.600000
   1675   1676     1   0.10800 307105.600000
   1672   1673     1   0.10900 284512.000000
   1669   1670     1   0.10900 284512.000000
   1666   1667     1   0.10900 284512.000000
   1666   1668     1   0.10900 284512.000000
   1723   1724     1   0.09600 462750.400000
   1721   1722     1   0.10900 284512.000000
   1719   1720     1   0.10900 284512.000000
   1715   1716     1   0.10800 307105.600000
   1711   1712     1   0.10100 363171.200000
   1711   1713     1   0.10100 363171.200000
   1706   1707     1   0.10800 307105.600000
   1703   1704     1   0.10900 284512.000000
   1700   1701     1   0.10900 284512.000000
   1697   1698     1   0.10900 284512.000000
   1697   1699     1   0.10900 284512.000000
   1757   1758     1   0.09600 462750.400000
   1755   1756     1   0.10900 284512.000000
   1753   1754     1   0.10900 284512.000000
   1748   1749     1   0.10100 363171.200000
   1748   1750     1   0.10100 363171.200000
   1745   1746     1   0.10100 363171.200000
   1739   1740     1   0.10800 307105.600000
   1736   1737     1   0.10900 284512.000000
   1733   1734     1   0.10900 284512.000000
   1730   1731     1   0.10900 284512.000000
   1730   1732     1   0.10900 284512.000000
   1791   1792     1   0.09600 462750.400000
   1789   1790     1   0.10900 284512.000000
   1787   1788     1   0.10900 284512.000000
   1782   1783     1   0.10100 363171.200000
   1782   1784     1   0.10100 363171.200000
   1779   1780     1   0.10100 363171.200000
   1773   1774     1   0.10800 307105.600000
   1770   1771     1   0.10900 284512.000000
   1767   1768     1   0.10900 284512.000000
   1764   1765     1   0.10900 284512.000000
   1764   1766     1   0.10900 284512.000000
   1822   1823     1   0.09600 462750.400000
   1820   1821     1   0.10900 284512.000000
   1818   1819     1   0.10900 284512.000000
   1812   1813     1   0.10100 363171.200000
   1812   1814     1   0.10100 363171.200000
   1809   1810     1   0.10800 307105.600000
   1807   1808     1   0.10800 307105.600000
   1804   1805     1   0.10900 284512.000000
   1801   1802     1   0.10900 284512.000000
   1798   1799     1   0.10900 284512.000000
   1798   1800     1   0.10900 284512.000000
   1855   1856     1   0.09600 462750.400000
   1853   1854     1   0.10900 284512.000000
   1851   1852     1   0.10900 284512.000000
   1847   1848     1   0.10800 307105.600000
   1843   1844     1   0.10100 363171.200000
   1843   1845     1   0.10100 363171.200000
   1838   1839     1   0.10800 307105.600000
   1835   1836     1   0.10900 284512.000000
   1832   1833     1   0.10900 284512.000000
   1829   1830     1   0.10900 284512.000000
   1829   1831     1   0.10900 284512.000000
   1886   1887     1   0.09600 462750.400000
   1884   1885     1   0.10900 284512.000000
   1882   1883     1   0.10900 284512.000000
   1876   1877     1   0.10100 363171.200000
   1876   1878     1   0.10100 363171.200000
   1873   1874     1   0.10800 307105.600000
   1871   1872     1   0.10800 307105.600000
   1868   1869     1   0.10900 284512.000000
   1865   1866     1   0.10900 284512.000000
   1862   1863     1   0.10900 284512.000000
   1862   1864     1   0.10900 284512.000000
   1916   1917     1   0.09600 462750.400000
   1914   1915     1   0.10900 284512.000000
   1912   1913     1   0.10900 284512.000000
   1908   1909     1   0.10100 363171.200000
   1904   1905     1   0.10800 307105.600000
   1902   1903     1   0.10800 307105.600000
   1899   1900     1   0.10900 284512.000000
   1896   1897     1   0.10900 284512.000000
   1893   1894     1   0.10900 284512.000000
   1893   1895     1   0.10900 284512.000000
   1949   1950     1   0.09600 462750.400000
   1947   1948     1   0.10900 284512.000000
   1945   1946     1   0.10900 284512.000000
   1941   1942     1   0.10800 307105.600000
   1937   1938     1   0.10100 363171.200000
   1937   1939     1   0.10100 363171.200000
   1932   1933     1   0.10800 307105.600000
   1929   1930     1   0.10900 284512.000000
   1926   1927     1   0.10900 284512.000000
   1923   1924     1   0.10900 284512.000000
   1923   1925     1   0.10900 284512.000000
   1983   1984     1   0.09600 462750.400000
   1981   1982     1   0.10900 284512.000000
   1979   1980     1   0.10900 284512.000000
   1974   1975     1   0.10100 363171.200000
   1974   1976     1   0.10100 363171.200000
   1971   1972     1   0.10100 363171.200000
   1965   1966     1   0.10800 307105.600000
   1962   1963     1   0.10900 284512.000000
   1959   1960     1   0.10900 284512.000000
   1956   1957     1   0.10900 284512.000000
   1956   1958     1   0.10900 284512.000000
   2013   2014     1   0.09600 462750.400000
   2011   2012     1   0.10900 284512.000000
   2009   2010     1   0.10900 284512.000000
   2005   2006     1   0.10100 363171.200000
   2001   2002     1   0.10800 307105.600000
   1999   2000     1   0.10800 307105.600000
   1996   1997     1   0.10900 284512.000000
   1993   1994     1   0.10900 284512.000000
   1990   1991     1   0.10900 284512.000000
   1990   1992     1   0.10900 284512.000000
   2046   2047     1   0.09600 462750.400000
   2044   2045     1   0.10900 284512.000000
   2042   2043     1   0.10900 284512.000000
   2038   2039     1   0.10800 307105.600000
   2034   2035     1   0.10100 363171.200000
   2034   2036     1   0.10100 363171.200000
   2029   2030     1   0.10800 307105.600000
   2026   2027     1   0.10900 284512.000000
   2023   2024     1   0.10900 284512.000000
   2020   2021     1   0.10900 284512.000000
   2020   2022     1   0.10900 284512.000000
   2077   2078     1   0.09600 462750.400000
   2075   2076     1   0.10900 284512.000000
   2073   2074     1   0.10900 284512.000000
   2067   2068     1   0.10100 363171.200000
   2067   2069     1   0.10100 363171.200000
   2064   2065     1   0.10800 307105.600000
   2062   2063     1   0.10800 307105.600000
   2059   2060     1   0.10900 284512.000000
   2056   2057     1   0.10900 284512.000000
   2053   2054     1   0.10900 284512.000000
   2053   2055     1   0.10900 284512.000000
   2107   2108     1   0.09600 462750.400000
   2105   2106     1   0.10900 284512.000000
   2103   2104     1   0.10900 284512.000000
   2099   2100     1   0.10100 363171.200000
   2095   2096     1   0.10800 307105.600000
   2093   2094     1   0.10800 307105.600000
   2090   2091     1   0.10900 284512.000000
   2087   2088     1   0.10900 284512.000000
   2084   2085     1   0.10900 284512.000000
   2084   2086     1   0.10900 284512.000000
   2141   2142     1   0.09600 462750.400000
   2139   2140     1   0.10900 284512.000000
   2137   2138     1   0.10900 284512.000000
   2132   2133     1   0.10100 363171.200000
   2132   2134     1   0.10100 363171.200000
   2129   2130     1   0.10100 363171.200000
   2123   2124     1   0.10800 307105.600000
   2120   2121     1   0.10900 284512.000000
   2117   2118     1   0.10900 284512.000000
   2114   2115     1   0.10900 284512.000000
   2114   2116     1   0.10900 284512.000000
   2174   2175     1   0.09600 462750.400000
   2172   2173     1   0.10900 284512.000000
   2170   2171     1   0.10900 284512.000000
   2166   2167     1   0.10800 307105.600000
   2162   2163     1   0.10100 363171.200000
   2162   2164     1   0.10100 363171.200000
   2157   2158     1   0.10800 307105.600000
   2154   2155     1   0.10900 284512.000000
   2151   2152     1   0.10900 284512.000000
   2148   2149     1   0.10900 284512.000000
   2148   2150     1   0.10900 284512.000000
   2204   2205     1   0.09600 462750.400000
   2202   2203     1   0.10900 284512.000000
   2200   2201     1   0.10900 284512.000000
   2196   2197     1   0.10100 363171.200000
   2192   2193     1   0.10800 307105.600000
   2190   2191     1   0.10800 307105.600000
   2187   2188     1   0.10900 284512.000000
   2184   2185     1   0.10900 284512.000000
   2181   2182     1   0.10900 284512.000000
   2181   2183     1   0.10900 284512.000000
   2238   2239     1   0.09600 462750.400000
   2236   2237     1   0.10900 284512.000000
   2234   2235     1   0.10900 284512.000000
   2229   2230     1   0.10100 363171.200000
   2229   2231     1   0.10100 363171.200000
   2226   2227     1   0.10100 363171.200000
   2220   2221     1   0.10800 307105.600000
   2217   2218     1   0.10900 284512.000000
   2214   2215     1   0.10900 284512.000000
   2211   2212     1   0.10900 284512.000000
   2211   2213     1   0.10900 284512.000000
   2268   2269     1   0.09600 462750.400000
   2266   2267     1   0.10900 284512.000000
   2264   2265     1   0.10900 284512.000000
   2260   2261     1   0.10100 363171.200000
   2256   2257     1   0.10800 307105.600000
   2254   2255     1   0.10800 307105.600000
   2251   2252     1   0.10900 284512.000000
   2248   2249     1   0.10900 284512.000000
   2245   2246     1   0.10900 284512.000000
   2245   2247     1   0.10900 284512.000000
   2299   2300     1   0.09600 462750.400000
   2297   2298     1   0.10900 284512.000000
   2295   2296     1   0.10900 284512.000000
   2289   2290     1   0.10100 363171.200000
   2289   2291     1   0.10100 363171.200000
   2286   2287     1   0.10800 307105.600000
   2284   2285     1   0.10800 307105.600000
   2281   2282     1   0.10900 284512.000000
   2278   2279     1   0.10900 284512.000000
   2275   2276     1   0.10900 284512.000000
   2275   2277     1   0.10900 284512.000000
   2333   2334     1   0.09600 462750.400000
   2331   2332     1   0.10900 284512.000000
   2329   2330     1   0.10900 284512.000000
   2324   2325     1   0.10100 363171.200000
   2324   2326     1   0.10100 363171.200000
   2321   2322     1   0.10100 363171.200000
   2315   2316     1   0.10800 307105.600000
   2312   2313     1   0.10900 284512.000000
   2309   2310     1   0.10900 284512.000000
   2306   2307     1   0.10900 284512.000000
   2306   2308     1   0.10900 284512.000000
   2363   2364     1   0.09600 462750.400000
   2361   2362     1   0.10900 284512.000000
   2359   2360     1   0.10900 284512.000000
   2355   2356     1   0.10100 363171.200000
   2351   2352     1   0.10800 307105.600000
   2349   2350     1   0.10800 307105.600000
   2346   2347     1   0.10900 284512.000000
   2343   2344     1   0.10900 284512.000000
   2340   2341     1   0.10900 284512.000000
   2340   2342     1   0.10900 284512.000000
   2396   2397     1   0.09600 462750.400000
   2394   2395     1   0.10900 284512.000000
   2392   2393     1   0.10900 284512.000000
   2388   2389     1   0.10800 307105.600000
   2384   2385     1   0.10100 363171.200000
   2384   2386     1   0.10100 363171.200000
   2379   2380     1   0.10800 307105.600000
   2376   2377     1   0.10900 284512.000000
   2373   2374     1   0.10900 284512.000000
   2370   2371     1   0.10900 284512.000000
   2370   2372     1   0.10900 284512.000000
   2426   2427     1   0.09600 462750.400000
   2424   2425     1   0.10900 284512.000000
   2422   2423     1   0.10900 284512.000000
   2418   2419     1   0.10100 363171.200000
   2414   2415     1   0.10800 307105.600000
   2412   2413     1   0.10800 307105.600000
   2409   2410     1   0.10900 284512.000000
   2406   2407     1   0.10900 284512.000000
   2403   2404     1   0.10900 284512.000000
   2403   2405     1   0.10900 284512.000000
   2459   2460     1   0.09600 462750.400000
   2457   2458     1   0.10900 284512.000000
   2455   2456     1   0.10900 284512.000000
   2451   2452     1   0.10800 307105.600000
   2447   2448     1   0.10100 363171.200000
   2447   2449     1   0.10100 363171.200000
   2442   2443     1   0.10800 307105.600000
   2439   2440     1   0.10900 284512.000000
   2436   2437     1   0.10900 284512.000000
   2433   2434     1   0.10900 284512.000000
   2433   2435     1   0.10900 284512.000000
   2490   2491     1   0.09600 462750.400000
   2488   2489     1   0.10900 284512.000000
   2486   2487     1   0.10900 284512.000000
   2480   2481     1   0.10100 363171.200000
   2480   2482     1   0.10100 363171.200000
   2477   2478     1   0.10800 307105.600000
   2475   2476     1   0.10800 307105.600000
   2472   2473     1   0.10900 284512.000000
   2469   2470     1   0.10900 284512.000000
   2466   2467     1   0.10900 284512.000000
   2466   2468     1   0.10900 284512.000000
   2523   2524     1   0.09600 462750.400000
   2521   2522     1   0.10900 284512.000000
   2519   2520     1   0.10900 284512.000000
   2515   2516     1   0.10800 307105.600000
   2511   2512     1   0.10100 363171.200000
   2511   2513     1   0.10100 363171.200000
   2506   2507     1   0.10800 307105.600000
   2503   2504     1   0.10900 284512.000000
   2500   2501     1   0.10900 284512.000000
   2497   2498     1   0.10900 284512.000000
   2497   2499     1   0.10900 284512.000000
   2557   2558     1   0.09600 462750.400000
   2555   2556     1   0.10900 284512.000000
   2553   2554     1   0.10900 284512.000000
   2548   2549     1   0.10100 363171.200000
   2548   2550     1   0.10100 363171.200000
   2545   2546     1   0.10100 363171.200000
   2539   2540     1   0.10800 307105.600000
   2536   2537     1   0.10900 284512.000000
   2533   2534     1   0.10900 284512.000000
   2530   2531     1   0.10900 284512.000000
   2530   2532     1   0.10900 284512.000000
   2591   2592     1   0.09600 462750.400000
   2589   2590     1   0.10900 284512.000000
   2587   2588     1   0.10900 284512.000000
   2582   2583     1   0.10100 363171.200000
   2582   2584     1   0.10100 363171.200000
   2579   2580     1   0.10100 363171.200000
   2573   2574     1   0.10800 307105.600000
   2570   2571     1   0.10900 284512.000000
   2567   2568     1   0.10900 284512.000000
   2564   2565     1   0.10900 284512.000000
   2564   2566     1   0.10900 284512.000000
   2625   2626     1   0.09600 462750.400000
   2623   2624     1   0.10900 284512.000000
   2621   2622     1   0.10900 284512.000000
   2616   2617     1   0.10100 363171.200000
   2616   2618     1   0.10100 363171.200000
   2613   2614     1   0.10100 363171.200000
   2607   2608     1   0.10800 307105.600000
   2604   2605     1   0.10900 284512.000000
   2601   2602     1   0.10900 284512.000000
   2598   2599     1   0.10900 284512.000000
   2598   2600     1   0.10900 284512.000000
   2656   2657     1   0.09600 462750.400000
   2654   2655     1   0.10900 284512.000000
   2652   2653     1   0.10900 284512.000000
   2646   2647     1   0.10100 363171.200000
   2646   2648     1   0.10100 363171.200000
   2643   2644     1   0.10800 307105.600000
   2641   2642     1   0.10800 307105.600000
   2638   2639     1   0.10900 284512.000000
   2635   2636     1   0.10900 284512.000000
   2632   2633     1   0.10900 284512.000000
   2632   2634     1   0.10900 284512.000000
   2686   2687     1   0.09600 462750.400000
   2684   2685     1   0.10900 284512.000000
   2682   2683     1   0.10900 284512.000000
   2678   2679     1   0.10100 363171.200000
   2674   2675     1   0.10800 307105.600000
   2672   2673     1   0.10800 307105.600000
   2669   2670     1   0.10900 284512.000000
   2666   2667     1   0.10900 284512.000000
   2663   2664     1   0.10900 284512.000000
   2663   2665     1   0.10900 284512.000000
   2716   2717     1   0.09600 462750.400000
   2714   2715     1   0.10900 284512.000000
   2712   2713     1   0.10900 284512.000000
   2708   2709     1   0.10100 363171.200000
   2704   2705     1   0.10800 307105.600000
   2702   2703     1   0.10800 307105.600000
   2699   2700     1   0.10900 284512.000000
   2696   2697     1   0.10900 284512.000000
   2693   2694     1   0.10900 284512.000000
   2693   2695     1   0.10900 284512.000000
   2746   2747     1   0.09600 462750.400000
   2744   2745     1   0.10900 284512.000000
   2742   2743     1   0.10900 284512.000000
   2738   2739     1   0.10100 363171.200000
   2734   2735     1   0.10800 307105.600000
   2732   2733     1   0.10800 307105.600000
   2729   2730     1   0.10900 284512.000000
   2726   2727     1   0.10900 284512.000000
   2723   2724     1   0.10900 284512.000000
   2723   2725     1   0.10900 284512.000000
   2778   2779     1   0.09600 462750.400000
   2776   2777     1   0.09600 462750.400000
   2774   2775     1   0.10900 284512.000000
   2772   2773     1   0.10900 284512.000000
   2768   2769     1   0.10100 363171.200000
   2764   2765     1   0.10800 307105.600000
   2762   2763     1   0.10800 307105.600000
   2759   2760     1   0.10900 284512.000000
   2756   2757     1   0.10900 284512.000000
   2753   2754     1   0.10900 284512.000000
   2753   2755     1   0.10900 284512.000000

[ pairs ]
;    ai     aj funct         c0         c1         c2         c3
     32     37     1
     30     32     1
     28     33     1
     26     34     1
     26     35     1
     26     36     1
     25     28     1
     21     25     1
     18     25     1
     17     25     1
     17     20     1
     16     24     1
     16     21     1
     15     20     1
     14     17     1
     14     18     1
     14     24     1
     12     28     1
     12     24     1
     12     16     1
     11     26     1
     11     30     1
     11     16     1
     11     20     1
      9     14     1
      9     15     1
      9     24     1
      9     32     1
      8     32     1
      8     12     1
      8     25     1
      8     30     1
      6     11     1
      6     30     1
      6     33     1
      3      9     1
      3     28     1
      3     32     1
      2      8     1
      2     26     1
     62     67     1
     60     62     1
     58     63     1
     56     64     1
     56     65     1
     56     66     1
     54     58     1
     51     54     1
     50     55     1
     48     54     1
     46     58     1
     46     52     1
     46     55     1
     46     51     1
     45     56     1
     45     60     1
     45     50     1
     43     48     1
     43     52     1
     43     55     1
     43     62     1
     42     62     1
     42     46     1
     42     54     1
     42     60     1
     40     45     1
     40     60     1
     40     63     1
     37     43     1
     37     58     1
     37     62     1
     36     42     1
     36     56     1
     35     37     1
     34     37     1
     33     40     1
     92     97     1
     90     92     1
     88     93     1
     86     94     1
     86     95     1
     86     96     1
     84     88     1
     81     84     1
     80     85     1
     78     84     1
     76     88     1
     76     82     1
     76     85     1
     76     81     1
     75     86     1
     75     90     1
     75     80     1
     73     78     1
     73     82     1
     73     85     1
     73     92     1
     72     92     1
     72     76     1
     72     84     1
     72     90     1
     70     75     1
     70     90     1
     70     93     1
     67     73     1
     67     88     1
     67     92     1
     66     72     1
     66     86     1
     65     67     1
     64     67     1
     63     70     1
    122    127     1
    120    122     1
    118    123     1
    116    124     1
    116    125     1
    116    126     1
    114    118     1
    111    114     1
    110    115     1
    108    114     1
    106    118     1
    106    112     1
    106    115     1
    106    111     1
    105    116     1
    105    120     1
    105    110     1
    103    108     1
    103    112     1
    103    115     1
    103    122     1
    102    122     1
    102    106     1
    102    114     1
    102    120     1
    100    105     1
    100    120     1
    100    123     1
     97    103     1
     97    118     1
     97    122     1
     96    102     1
     96    116     1
     95     97     1
     94     97     1
     93    100     1
    152    157     1
    150    152     1
    148    153     1
    146    154     1
    146    155     1
    146    156     1
    144    148     1
    141    144     1
    140    145     1
    138    144     1
    136    148     1
    136    142     1
    136    145     1
    136    141     1
    135    146     1
    135    150     1
    135    140     1
    133    138     1
    133    142     1
    133    145     1
    133    152     1
    132    152     1
    132    136     1
    132    144     1
    132    150     1
    130    135     1
    130    150     1
    130    153     1
    127    133     1
    127    148     1
    127    152     1
    126    132     1
    126    146     1
    125    127     1
    124    127     1
    123    130     1
    182    187     1
    180    182     1
    178    183     1
    176    184     1
    176    185     1
    176    186     1
    174    178     1
    171    174     1
    170    175     1
    168    174     1
    166    178     1
    166    172     1
    166    175     1
    166    171     1
    165    176     1
    165    180     1
    165    170     1
    163    168     1
    163    172     1
    163    175     1
    163    182     1
    162    182     1
    162    166     1
    162    174     1
    162    180     1
    160    165     1
    160    180     1
    160    183     1
    157    163     1
    157    178     1
    157    182     1
    156    162     1
    156    176     1
    155    157     1
    154    157     1
    153    160     1
    215    220     1
    213    215     1
    211    216     1
    209    217     1
    209    218     1
    209    219     1
    208    211     1
    204    208     1
    201    208     1
    201    205     1
    200    207     1
    199    205     1
    198    201     1
    198    204     1
    198    207     1
    196    211     1
    196    207     1
    196    200     1
    195    209     1
    195    213     1
    195    200     1
    195    205     1
    193    198     1
    193    199     1
    193    207     1
    193    215     1
    192    215     1
    192    196     1
    192    208     1
    192    213     1
    190    195     1
    190    213     1
    190    216     1
    187    193     1
    187    211     1
    187    215     1
    186    192     1
    186    209     1
    185    187     1
    184    187     1
    183    190     1
    248    253     1
    246    248     1
    244    249     1
    242    250     1
    242    251     1
    242    252     1
    241    244     1
    237    241     1
    234    241     1
    234    238     1
    233    240     1
    232    238     1
    231    234     1
    231    237     1
    231    240     1
    229    244     1
    229    240     1
    229    233     1
    228    242     1
    228    246     1
    228    233     1
    228    238     1
    226    231     1
    226    232     1
    226    240     1
    226    248     1
    225    248     1
    225    229     1
    225    241     1
    225    246     1
    223    228     1
    223    246     1
    223    249     1
    220    226     1
    220    244     1
    220    248     1
    219    225     1
    219    242     1
    218    220     1
    217    220     1
    216    223     1
    281    286     1
    279    281     1
    277    282     1
    275    283     1
    275    284     1
    275    285     1
    274    277     1
    270    274     1
    267    274     1
    267    271     1
    266    273     1
    265    271     1
    264    267     1
    264    270     1
    264    273     1
    262    277     1
    262    273     1
    262    266     1
    261    275     1
    261    279     1
    261    266     1
    261    271     1
    259    264     1
    259    265     1
    259    273     1
    259    281     1
    258    281     1
    258    262     1
    258    274     1
    258    279     1
    256    261     1
    256    279     1
    256    282     1
    253    259     1
    253    277     1
    253    281     1
    252    258     1
    252    275     1
    251    253     1
    250    253     1
    249    256     1
    312    317     1
    310    312     1
    308    313     1
    306    314     1
    306    315     1
    306    316     1
    304    308     1
    300    304     1
    299    305     1
    297    304     1
    295    308     1
    295    303     1
    295    305     1
    295    300     1
    294    306     1
    294    310     1
    294    299     1
    292    297     1
    292    303     1
    292    305     1
    292    312     1
    291    312     1
    291    295     1
    291    304     1
    291    310     1
    289    294     1
    289    310     1
    289    313     1
    286    292     1
    286    308     1
    286    312     1
    285    291     1
    285    306     1
    284    286     1
    283    286     1
    282    289     1
    346    351     1
    344    346     1
    342    347     1
    340    348     1
    340    349     1
    340    350     1
    339    342     1
    335    339     1
    332    339     1
    331    339     1
    331    334     1
    330    338     1
    330    335     1
    329    334     1
    328    331     1
    328    332     1
    328    338     1
    326    342     1
    326    338     1
    326    330     1
    325    340     1
    325    344     1
    325    330     1
    325    334     1
    323    328     1
    323    329     1
    323    338     1
    323    346     1
    322    346     1
    322    326     1
    322    339     1
    322    344     1
    320    325     1
    320    344     1
    320    347     1
    317    323     1
    317    342     1
    317    346     1
    316    322     1
    316    340     1
    315    317     1
    314    317     1
    313    320     1
    380    385     1
    378    380     1
    376    381     1
    374    382     1
    374    383     1
    374    384     1
    373    376     1
    369    373     1
    366    373     1
    365    373     1
    365    368     1
    364    372     1
    364    369     1
    363    368     1
    362    365     1
    362    366     1
    362    372     1
    360    376     1
    360    372     1
    360    364     1
    359    374     1
    359    378     1
    359    364     1
    359    368     1
    357    362     1
    357    363     1
    357    372     1
    357    380     1
    356    380     1
    356    360     1
    356    373     1
    356    378     1
    354    359     1
    354    378     1
    354    381     1
    351    357     1
    351    376     1
    351    380     1
    350    356     1
    350    374     1
    349    351     1
    348    351     1
    347    354     1
    414    419     1
    412    414     1
    410    415     1
    408    416     1
    408    417     1
    408    418     1
    407    410     1
    403    407     1
    400    407     1
    399    407     1
    399    402     1
    398    406     1
    398    403     1
    397    402     1
    396    399     1
    396    400     1
    396    406     1
    394    410     1
    394    406     1
    394    398     1
    393    408     1
    393    412     1
    393    398     1
    393    402     1
    391    396     1
    391    397     1
    391    406     1
    391    414     1
    390    414     1
    390    394     1
    390    407     1
    390    412     1
    388    393     1
    388    412     1
    388    415     1
    385    391     1
    385    410     1
    385    414     1
    384    390     1
    384    408     1
    383    385     1
    382    385     1
    381    388     1
    444    449     1
    442    444     1
    440    445     1
    438    446     1
    438    447     1
    438    448     1
    436    440     1
    433    436     1
    432    437     1
    430    436     1
    428    440     1
    428    434     1
    428    437     1
    428    433     1
    427    438     1
    427    442     1
    427    432     1
    425    430     1
    425    434     1
    425    437     1
    425    444     1
    424    444     1
    424    428     1
    424    436     1
    424    442     1
    422    427     1
    422    442     1
    422    445     1
    419    425     1
    419    440     1
    419    444     1
    418    424     1
    418    438     1
    417    419     1
    416    419     1
    415    422     1
    474    479     1
    472    474     1
    470    475     1
    468    476     1
    468    477     1
    468    478     1
    466    470     1
    463    466     1
    462    467     1
    460    466     1
    458    470     1
    458    464     1
    458    467     1
    458    463     1
    457    468     1
    457    472     1
    457    462     1
    455    460     1
    455    464     1
    455    467     1
    455    474     1
    454    474     1
    454    458     1
    454    466     1
    454    472     1
    452    457     1
    452    472     1
    452    475     1
    449    455     1
    449    470     1
    449    474     1
    448    454     1
    448    468     1
    447    449     1
    446    449     1
    445    452     1
    504    509     1
    502    504     1
    500    505     1
    498    506     1
    498    507     1
    498    508     1
    496    500     1
    493    496     1
    492    497     1
    490    496     1
    488    500     1
    488    494     1
    488    497     1
    488    493     1
    487    498     1
    487    502     1
    487    492     1
    485    490     1
    485    494     1
    485    497     1
    485    504     1
    484    504     1
    484    488     1
    484    496     1
    484    502     1
    482    487     1
    482    502     1
    482    505     1
    479    485     1
    479    500     1
    479    504     1
    478    484     1
    478    498     1
    477    479     1
    476    479     1
    475    482     1
    538    543     1
    536    538     1
    534    539     1
    532    540     1
    532    541     1
    532    542     1
    531    534     1
    527    531     1
    524    531     1
    523    531     1
    523    526     1
    522    530     1
    522    527     1
    521    526     1
    520    523     1
    520    524     1
    520    530     1
    518    534     1
    518    530     1
    518    522     1
    517    532     1
    517    536     1
    517    522     1
    517    526     1
    515    520     1
    515    521     1
    515    530     1
    515    538     1
    514    538     1
    514    518     1
    514    531     1
    514    536     1
    512    517     1
    512    536     1
    512    539     1
    509    515     1
    509    534     1
    509    538     1
    508    514     1
    508    532     1
    507    509     1
    506    509     1
    505    512     1
    569    574     1
    567    569     1
    565    570     1
    563    571     1
    563    572     1
    563    573     1
    561    565     1
    557    561     1
    556    562     1
    554    561     1
    552    565     1
    552    560     1
    552    562     1
    552    557     1
    551    563     1
    551    567     1
    551    556     1
    549    554     1
    549    560     1
    549    562     1
    549    569     1
    548    569     1
    548    552     1
    548    561     1
    548    567     1
    546    551     1
    546    567     1
    546    570     1
    543    549     1
    543    565     1
    543    569     1
    542    548     1
    542    563     1
    541    543     1
    540    543     1
    539    546     1
    603    608     1
    601    603     1
    599    604     1
    597    605     1
    597    606     1
    597    607     1
    596    599     1
    592    596     1
    589    596     1
    588    596     1
    588    591     1
    587    595     1
    587    592     1
    586    591     1
    585    588     1
    585    589     1
    585    595     1
    583    599     1
    583    595     1
    583    587     1
    582    597     1
    582    601     1
    582    587     1
    582    591     1
    580    585     1
    580    586     1
    580    595     1
    580    603     1
    579    603     1
    579    583     1
    579    596     1
    579    601     1
    577    582     1
    577    601     1
    577    604     1
    574    580     1
    574    599     1
    574    603     1
    573    579     1
    573    597     1
    572    574     1
    571    574     1
    570    577     1
    637    642     1
    635    637     1
    633    638     1
    631    639     1
    631    640     1
    631    641     1
    630    633     1
    626    630     1
    623    630     1
    622    630     1
    622    625     1
    621    629     1
    621    626     1
    620    625     1
    619    622     1
    619    623     1
    619    629     1
    617    633     1
    617    629     1
    617    621     1
    616    631     1
    616    635     1
    616    621     1
    616    625     1
    614    619     1
    614    620     1
    614    629     1
    614    637     1
    613    637     1
    613    617     1
    613    630     1
    613    635     1
    611    616     1
    611    635     1
    611    638     1
    608    614     1
    608    633     1
    608    637     1
    607    613     1
    607    631     1
    606    608     1
    605    608     1
    604    611     1
    667    672     1
    665    667     1
    663    668     1
    661    669     1
    661    670     1
    661    671     1
    659    663     1
    656    659     1
    655    660     1
    653    659     1
    651    663     1
    651    657     1
    651    660     1
    651    656     1
    650    661     1
    650    665     1
    650    655     1
    648    653     1
    648    657     1
    648    660     1
    648    667     1
    647    667     1
    647    651     1
    647    659     1
    647    665     1
    645    650     1
    645    665     1
    645    668     1
    642    648     1
    642    663     1
    642    667     1
    641    647     1
    641    661     1
    640    642     1
    639    642     1
    638    645     1
    701    706     1
    699    701     1
    697    702     1
    695    703     1
    695    704     1
    695    705     1
    694    697     1
    690    694     1
    687    694     1
    686    694     1
    686    689     1
    685    693     1
    685    690     1
    684    689     1
    683    686     1
    683    687     1
    683    693     1
    681    697     1
    681    693     1
    681    685     1
    680    695     1
    680    699     1
    680    685     1
    680    689     1
    678    683     1
    678    684     1
    678    693     1
    678    701     1
    677    701     1
    677    681     1
    677    694     1
    677    699     1
    675    680     1
    675    699     1
    675    702     1
    672    678     1
    672    697     1
    672    701     1
    671    677     1
    671    695     1
    670    672     1
    669    672     1
    668    675     1
    731    736     1
    729    731     1
    727    732     1
    725    733     1
    725    734     1
    725    735     1
    723    727     1
    720    723     1
    719    724     1
    717    723     1
    715    727     1
    715    721     1
    715    724     1
    715    720     1
    714    725     1
    714    729     1
    714    719     1
    712    717     1
    712    721     1
    712    724     1
    712    731     1
    711    731     1
    711    715     1
    711    723     1
    711    729     1
    709    714     1
    709    729     1
    709    732     1
    706    712     1
    706    727     1
    706    731     1
    705    711     1
    705    725     1
    704    706     1
    703    706     1
    702    709     1
    764    769     1
    762    764     1
    760    765     1
    758    766     1
    758    767     1
    758    768     1
    757    760     1
    753    757     1
    750    757     1
    750    754     1
    749    756     1
    748    754     1
    747    750     1
    747    753     1
    747    756     1
    745    760     1
    745    756     1
    745    749     1
    744    758     1
    744    762     1
    744    749     1
    744    754     1
    742    747     1
    742    748     1
    742    756     1
    742    764     1
    741    764     1
    741    745     1
    741    757     1
    741    762     1
    739    744     1
    739    762     1
    739    765     1
    736    742     1
    736    760     1
    736    764     1
    735    741     1
    735    758     1
    734    736     1
    733    736     1
    732    739     1
    797    802     1
    795    797     1
    793    798     1
    791    799     1
    791    800     1
    791    801     1
    790    793     1
    786    790     1
    783    790     1
    783    787     1
    782    789     1
    781    787     1
    780    783     1
    780    786     1
    780    789     1
    778    793     1
    778    789     1
    778    782     1
    777    791     1
    777    795     1
    777    782     1
    777    787     1
    775    780     1
    775    781     1
    775    789     1
    775    797     1
    774    797     1
    774    778     1
    774    790     1
    774    795     1
    772    777     1
    772    795     1
    772    798     1
    769    775     1
    769    793     1
    769    797     1
    768    774     1
    768    791     1
    767    769     1
    766    769     1
    765    772     1
    831    836     1
    829    831     1
    827    832     1
    825    833     1
    825    834     1
    825    835     1
    824    827     1
    820    824     1
    817    824     1
    816    824     1
    816    819     1
    815    823     1
    815    820     1
    814    819     1
    813    816     1
    813    817     1
    813    823     1
    811    827     1
    811    823     1
    811    815     1
    810    825     1
    810    829     1
    810    815     1
    810    819     1
    808    813     1
    808    814     1
    808    823     1
    808    831     1
    807    831     1
    807    811     1
    807    824     1
    807    829     1
    805    810     1
    805    829     1
    805    832     1
    802    808     1
    802    827     1
    802    831     1
    801    807     1
    801    825     1
    800    802     1
    799    802     1
    798    805     1
    861    866     1
    859    861     1
    857    862     1
    855    863     1
    855    864     1
    855    865     1
    853    857     1
    850    853     1
    849    854     1
    847    853     1
    845    857     1
    845    851     1
    845    854     1
    845    850     1
    844    855     1
    844    859     1
    844    849     1
    842    847     1
    842    851     1
    842    854     1
    842    861     1
    841    861     1
    841    845     1
    841    853     1
    841    859     1
    839    844     1
    839    859     1
    839    862     1
    836    842     1
    836    857     1
    836    861     1
    835    841     1
    835    855     1
    834    836     1
    833    836     1
    832    839     1
    895    900     1
    893    895     1
    891    896     1
    889    897     1
    889    898     1
    889    899     1
    888    891     1
    884    888     1
    881    888     1
    880    888     1
    880    883     1
    879    887     1
    879    884     1
    878    883     1
    877    880     1
    877    881     1
    877    887     1
    875    891     1
    875    887     1
    875    879     1
    874    889     1
    874    893     1
    874    879     1
    874    883     1
    872    877     1
    872    878     1
    872    887     1
    872    895     1
    871    895     1
    871    875     1
    871    888     1
    871    893     1
    869    874     1
    869    893     1
    869    896     1
    866    872     1
    866    891     1
    866    895     1
    865    871     1
    865    889     1
    864    866     1
    863    866     1
    862    869     1
    926    931     1
    924    926     1
    922    927     1
    920    928     1
    920    929     1
    920    930     1
    918    922     1
    914    918     1
    913    919     1
    911    918     1
    909    922     1
    909    917     1
    909    919     1
    909    914     1
    908    920     1
    908    924     1
    908    913     1
    906    911     1
    906    917     1
    906    919     1
    906    926     1
    905    926     1
    905    909     1
    905    918     1
    905    924     1
    903    908     1
    903    924     1
    903    927     1
    900    906     1
    900    922     1
    900    926     1
    899    905     1
    899    920     1
    898    900     1
    897    900     1
    896    903     1
    959    964     1
    957    959     1
    955    960     1
    953    961     1
    953    962     1
    953    963     1
    952    955     1
    948    952     1
    945    952     1
    945    949     1
    944    951     1
    943    949     1
    942    945     1
    942    948     1
    942    951     1
    940    955     1
    940    951     1
    940    944     1
    939    953     1
    939    957     1
    939    944     1
    939    949     1
    937    942     1
    937    943     1
    937    951     1
    937    959     1
    936    959     1
    936    940     1
    936    952     1
    936    957     1
    934    939     1
    934    957     1
    934    960     1
    931    937     1
    931    955     1
    931    959     1
    930    936     1
    930    953     1
    929    931     1
    928    931     1
    927    934     1
    993    998     1
    991    993     1
    989    994     1
    987    995     1
    987    996     1
    987    997     1
    986    989     1
    982    986     1
    979    986     1
    978    986     1
    978    981     1
    977    985     1
    977    982     1
    976    981     1
    975    978     1
    975    979     1
    975    985     1
    973    989     1
    973    985     1
    973    977     1
    972    987     1
    972    991     1
    972    977     1
    972    981     1
    970    975     1
    970    976     1
    970    985     1
    970    993     1
    969    993     1
    969    973     1
    969    986     1
    969    991     1
    967    972     1
    967    991     1
    967    994     1
    964    970     1
    964    989     1
    964    993     1
    963    969     1
    963    987     1
    962    964     1
    961    964     1
    960    967     1
   1024   1029     1
   1022   1024     1
   1020   1025     1
   1018   1026     1
   1018   1027     1
   1018   1028     1
   1016   1020     1
   1012   1016     1
   1011   1017     1
   1009   1016     1
   1007   1020     1
   1007   1015     1
   1007   1017     1
   1007   1012     1
   1006   1018     1
   1006   1022     1
   1006   1011     1
   1004   1009     1
   1004   1015     1
   1004   1017     1
   1004   1024     1
   1003   1024     1
   1003   1007     1
   1003   1016     1
   1003   1022     1
   1001   1006     1
   1001   1022     1
   1001   1025     1
    998   1004     1
    998   1020     1
    998   1024     1
    997   1003     1
    997   1018     1
    996    998     1
    995    998     1
    994   1001     1
   1055   1060     1
   1053   1055     1
   1051   1056     1
   1049   1057     1
   1049   1058     1
   1049   1059     1
   1047   1051     1
   1043   1047     1
   1042   1048     1
   1040   1047     1
   1038   1051     1
   1038   1046     1
   1038   1048     1
   1038   1043     1
   1037   1049     1
   1037   1053     1
   1037   1042     1
   1035   1040     1
   1035   1046     1
   1035   1048     1
   1035   1055     1
   1034   1055     1
   1034   1038     1
   1034   1047     1
   1034   1053     1
   1032   1037     1
   1032   1053     1
   1032   1056     1
   1029   1035     1
   1029   1051     1
   1029   1055     1
   1028   1034     1
   1028   1049     1
   1027   1029     1
   1026   1029     1
   1025   1032     1
   1086   1091     1
   1084   1086     1
   1082   1087     1
   1080   1088     1
   1080   1089     1
   1080   1090     1
   1078   1082     1
   1074   1078     1
   1073   1079     1
   1071   1078     1
   1069   1082     1
   1069   1077     1
   1069   1079     1
   1069   1074     1
   1068   1080     1
   1068   1084     1
   1068   1073     1
   1066   1071     1
   1066   1077     1
   1066   1079     1
   1066   1086     1
   1065   1086     1
   1065   1069     1
   1065   1078     1
   1065   1084     1
   1063   1068     1
   1063   1084     1
   1063   1087     1
   1060   1066     1
   1060   1082     1
   1060   1086     1
   1059   1065     1
   1059   1080     1
   1058   1060     1
   1057   1060     1
   1056   1063     1
   1120   1125     1
   1118   1120     1
   1116   1121     1
   1114   1122     1
   1114   1123     1
   1114   1124     1
   1113   1116     1
   1109   1113     1
   1106   1113     1
   1105   1113     1
   1105   1108     1
   1104   1112     1
   1104   1109     1
   1103   1108     1
   1102   1105     1
   1102   1106     1
   1102   1112     1
   1100   1116     1
   1100   1112     1
   1100   1104     1
   1099   1114     1
   1099   1118     1
   1099   1104     1
   1099   1108     1
   1097   1102     1
   1097   1103     1
   1097   1112     1
   1097   1120     1
   1096   1120     1
   1096   1100     1
   1096   1113     1
   1096   1118     1
   1094   1099     1
   1094   1118     1
   1094   1121     1
   1091   1097     1
   1091   1116     1
   1091   1120     1
   1090   1096     1
   1090   1114     1
   1089   1091     1
   1088   1091     1
   1087   1094     1
   1150   1155     1
   1148   1150     1
   1146   1151     1
   1144   1152     1
   1144   1153     1
   1144   1154     1
   1142   1146     1
   1139   1142     1
   1138   1143     1
   1136   1142     1
   1134   1146     1
   1134   1140     1
   1134   1143     1
   1134   1139     1
   1133   1144     1
   1133   1148     1
   1133   1138     1
   1131   1136     1
   1131   1140     1
   1131   1143     1
   1131   1150     1
   1130   1150     1
   1130   1134     1
   1130   1142     1
   1130   1148     1
   1128   1133     1
   1128   1148     1
   1128   1151     1
   1125   1131     1
   1125   1146     1
   1125   1150     1
   1124   1130     1
   1124   1144     1
   1123   1125     1
   1122   1125     1
   1121   1128     1
   1181   1186     1
   1179   1181     1
   1177   1182     1
   1175   1183     1
   1175   1184     1
   1175   1185     1
   1173   1177     1
   1169   1173     1
   1168   1174     1
   1166   1173     1
   1164   1177     1
   1164   1172     1
   1164   1174     1
   1164   1169     1
   1163   1175     1
   1163   1179     1
   1163   1168     1
   1161   1166     1
   1161   1172     1
   1161   1174     1
   1161   1181     1
   1160   1181     1
   1160   1164     1
   1160   1173     1
   1160   1179     1
   1158   1163     1
   1158   1179     1
   1158   1182     1
   1155   1161     1
   1155   1177     1
   1155   1181     1
   1154   1160     1
   1154   1175     1
   1153   1155     1
   1152   1155     1
   1151   1158     1
   1211   1216     1
   1209   1211     1
   1207   1212     1
   1205   1213     1
   1205   1214     1
   1205   1215     1
   1203   1207     1
   1200   1203     1
   1199   1204     1
   1197   1203     1
   1195   1207     1
   1195   1201     1
   1195   1204     1
   1195   1200     1
   1194   1205     1
   1194   1209     1
   1194   1199     1
   1192   1197     1
   1192   1201     1
   1192   1204     1
   1192   1211     1
   1191   1211     1
   1191   1195     1
   1191   1203     1
   1191   1209     1
   1189   1194     1
   1189   1209     1
   1189   1212     1
   1186   1192     1
   1186   1207     1
   1186   1211     1
   1185   1191     1
   1185   1205     1
   1184   1186     1
   1183   1186     1
   1182   1189     1
   1241   1246     1
   1239   1241     1
   1237   1242     1
   1235   1243     1
   1235   1244     1
   1235   1245     1
   1233   1237     1
   1230   1233     1
   1229   1234     1
   1227   1233     1
   1225   1237     1
   1225   1231     1
   1225   1234     1
   1225   1230     1
   1224   1235     1
   1224   1239     1
   1224   1229     1
   1222   1227     1
   1222   1231     1
   1222   1234     1
   1222   1241     1
   1221   1241     1
   1221   1225     1
   1221   1233     1
   1221   1239     1
   1219   1224     1
   1219   1239     1
   1219   1242     1
   1216   1222     1
   1216   1237     1
   1216   1241     1
   1215   1221     1
   1215   1235     1
   1214   1216     1
   1213   1216     1
   1212   1219     1
   1274   1279     1
   1272   1274     1
   1270   1275     1
   1268   1276     1
   1268   1277     1
   1268   1278     1
   1267   1270     1
   1263   1267     1
   1260   1267     1
   1260   1264     1
   1259   1266     1
   1258   1264     1
   1257   1260     1
   1257   1263     1
   1257   1266     1
   1255   1270     1
   1255   1266     1
   1255   1259     1
   1254   1268     1
   1254   1272     1
   1254   1259     1
   1254   1264     1
   1252   1257     1
   1252   1258     1
   1252   1266     1
   1252   1274     1
   1251   1274     1
   1251   1255     1
   1251   1267     1
   1251   1272     1
   1249   1254     1
   1249   1272     1
   1249   1275     1
   1246   1252     1
   1246   1270     1
   1246   1274     1
   1245   1251     1
   1245   1268     1
   1244   1246     1
   1243   1246     1
   1242   1249     1
   1305   1310     1
   1303   1305     1
   1301   1306     1
   1299   1307     1
   1299   1308     1
   1299   1309     1
   1297   1301     1
   1293   1297     1
   1292   1298     1
   1290   1297     1
   1288   1301     1
   1288   1296     1
   1288   1298     1
   1288   1293     1
   1287   1299     1
   1287   1303     1
   1287   1292     1
   1285   1290     1
   1285   1296     1
   1285   1298     1
   1285   1305     1
   1284   1305     1
   1284   1288     1
   1284   1297     1
   1284   1303     1
   1282   1287     1
   1282   1303     1
   1282   1306     1
   1279   1285     1
   1279   1301     1
   1279   1305     1
   1278   1284     1
   1278   1299     1
   1277   1279     1
   1276   1279     1
   1275   1282     1
   1338   1343     1
   1336   1338     1
   1334   1339     1
   1332   1340     1
   1332   1341     1
   1332   1342     1
   1331   1334     1
   1327   1331     1
   1324   1331     1
   1324   1328     1
   1323   1330     1
   1322   1328     1
   1321   1324     1
   1321   1327     1
   1321   1330     1
   1319   1334     1
   1319   1330     1
   1319   1323     1
   1318   1332     1
   1318   1336     1
   1318   1323     1
   1318   1328     1
   1316   1321     1
   1316   1322     1
   1316   1330     1
   1316   1338     1
   1315   1338     1
   1315   1319     1
   1315   1331     1
   1315   1336     1
   1313   1318     1
   1313   1336     1
   1313   1339     1
   1310   1316     1
   1310   1334     1
   1310   1338     1
   1309   1315     1
   1309   1332     1
   1308   1310     1
   1307   1310     1
   1306   1313     1
   1369   1374     1
   1367   1369     1
   1365   1370     1
   1363   1371     1
   1363   1372     1
   1363   1373     1
   1361   1365     1
   1357   1361     1
   1356   1362     1
   1354   1361     1
   1352   1365     1
   1352   1360     1
   1352   1362     1
   1352   1357     1
   1351   1363     1
   1351   1367     1
   1351   1356     1
   1349   1354     1
   1349   1360     1
   1349   1362     1
   1349   1369     1
   1348   1369     1
   1348   1352     1
   1348   1361     1
   1348   1367     1
   1346   1351     1
   1346   1367     1
   1346   1370     1
   1343   1349     1
   1343   1365     1
   1343   1369     1
   1342   1348     1
   1342   1363     1
   1341   1343     1
   1340   1343     1
   1339   1346     1
   1400   1405     1
   1398   1400     1
   1396   1401     1
   1394   1402     1
   1394   1403     1
   1394   1404     1
   1392   1396     1
   1388   1392     1
   1387   1393     1
   1385   1392     1
   1383   1396     1
   1383   1391     1
   1383   1393     1
   1383   1388     1
   1382   1394     1
   1382   1398     1
   1382   1387     1
   1380   1385     1
   1380   1391     1
   1380   1393     1
   1380   1400     1
   1379   1400     1
   1379   1383     1
   1379   1392     1
   1379   1398     1
   1377   1382     1
   1377   1398     1
   1377   1401     1
   1374   1380     1
   1374   1396     1
   1374   1400     1
   1373   1379     1
   1373   1394     1
   1372   1374     1
   1371   1374     1
   1370   1377     1
   1434   1439     1
   1432   1434     1
   1430   1435     1
   1428   1436     1
   1428   1437     1
   1428   1438     1
   1427   1430     1
   1423   1427     1
   1420   1427     1
   1419   1427     1
   1419   1422     1
   1418   1426     1
   1418   1423     1
   1417   1422     1
   1416   1419     1
   1416   1420     1
   1416   1426     1
   1414   1430     1
   1414   1426     1
   1414   1418     1
   1413   1428     1
   1413   1432     1
   1413   1418     1
   1413   1422     1
   1411   1416     1
   1411   1417     1
   1411   1426     1
   1411   1434     1
   1410   1434     1
   1410   1414     1
   1410   1427     1
   1410   1432     1
   1408   1413     1
   1408   1432     1
   1408   1435     1
   1405   1411     1
   1405   1430     1
   1405   1434     1
   1404   1410     1
   1404   1428     1
   1403   1405     1
   1402   1405     1
   1401   1408     1
   1464   1469     1
   1462   1464     1
   1460   1465     1
   1458   1466     1
   1458   1467     1
   1458   1468     1
   1456   1460     1
   1453   1456     1
   1452   1457     1
   1450   1456     1
   1448   1460     1
   1448   1454     1
   1448   1457     1
   1448   1453     1
   1447   1458     1
   1447   1462     1
   1447   1452     1
   1445   1450     1
   1445   1454     1
   1445   1457     1
   1445   1464     1
   1444   1464     1
   1444   1448     1
   1444   1456     1
   1444   1462     1
   1442   1447     1
   1442   1462     1
   1442   1465     1
   1439   1445     1
   1439   1460     1
   1439   1464     1
   1438   1444     1
   1438   1458     1
   1437   1439     1
   1436   1439     1
   1435   1442     1
   1498   1503     1
   1496   1498     1
   1494   1499     1
   1492   1500     1
   1492   1501     1
   1492   1502     1
   1491   1494     1
   1487   1491     1
   1484   1491     1
   1483   1491     1
   1483   1486     1
   1482   1490     1
   1482   1487     1
   1481   1486     1
   1480   1483     1
   1480   1484     1
   1480   1490     1
   1478   1494     1
   1478   1490     1
   1478   1482     1
   1477   1492     1
   1477   1496     1
   1477   1482     1
   1477   1486     1
   1475   1480     1
   1475   1481     1
   1475   1490     1
   1475   1498     1
   1474   1498     1
   1474   1478     1
   1474   1491     1
   1474   1496     1
   1472   1477     1
   1472   1496     1
   1472   1499     1
   1469   1475     1
   1469   1494     1
   1469   1498     1
   1468   1474     1
   1468   1492     1
   1467   1469     1
   1466   1469     1
   1465   1472     1
   1529   1534     1
   1527   1529     1
   1525   1530     1
   1523   1531     1
   1523   1532     1
   1523   1533     1
   1521   1525     1
   1517   1521     1
   1516   1522     1
   1514   1521     1
   1512   1525     1
   1512   1520     1
   1512   1522     1
   1512   1517     1
   1511   1523     1
   1511   1527     1
   1511   1516     1
   1509   1514     1
   1509   1520     1
   1509   1522     1
   1509   1529     1
   1508   1529     1
   1508   1512     1
   1508   1521     1
   1508   1527     1
   1506   1511     1
   1506   1527     1
   1506   1530     1
   1503   1509     1
   1503   1525     1
   1503   1529     1
   1502   1508     1
   1502   1523     1
   1501   1503     1
   1500   1503     1
   1499   1506     1
   1563   1568     1
   1561   1563     1
   1559   1564     1
   1557   1565     1
   1557   1566     1
   1557   1567     1
   1556   1559     1
   1552   1556     1
   1549   1556     1
   1548   1556     1
   1548   1551     1
   1547   1555     1
   1547   1552     1
   1546   1551     1
   1545   1548     1
   1545   1549     1
   1545   1555     1
   1543   1559     1
   1543   1555     1
   1543   1547     1
   1542   1557     1
   1542   1561     1
   1542   1547     1
   1542   1551     1
   1540   1545     1
   1540   1546     1
   1540   1555     1
   1540   1563     1
   1539   1563     1
   1539   1543     1
   1539   1556     1
   1539   1561     1
   1537   1542     1
   1537   1561     1
   1537   1564     1
   1534   1540     1
   1534   1559     1
   1534   1563     1
   1533   1539     1
   1533   1557     1
   1532   1534     1
   1531   1534     1
   1530   1537     1
   1597   1602     1
   1595   1597     1
   1593   1598     1
   1591   1599     1
   1591   1600     1
   1591   1601     1
   1590   1593     1
   1586   1590     1
   1583   1590     1
   1582   1590     1
   1582   1585     1
   1581   1589     1
   1581   1586     1
   1580   1585     1
   1579   1582     1
   1579   1583     1
   1579   1589     1
   1577   1593     1
   1577   1589     1
   1577   1581     1
   1576   1591     1
   1576   1595     1
   1576   1581     1
   1576   1585     1
   1574   1579     1
   1574   1580     1
   1574   1589     1
   1574   1597     1
   1573   1597     1
   1573   1577     1
   1573   1590     1
   1573   1595     1
   1571   1576     1
   1571   1595     1
   1571   1598     1
   1568   1574     1
   1568   1593     1
   1568   1597     1
   1567   1573     1
   1567   1591     1
   1566   1568     1
   1565   1568     1
   1564   1571     1
   1628   1633     1
   1626   1628     1
   1624   1629     1
   1622   1630     1
   1622   1631     1
   1622   1632     1
   1620   1624     1
   1616   1620     1
   1615   1621     1
   1613   1620     1
   1611   1624     1
   1611   1619     1
   1611   1621     1
   1611   1616     1
   1610   1622     1
   1610   1626     1
   1610   1615     1
   1608   1613     1
   1608   1619     1
   1608   1621     1
   1608   1628     1
   1607   1628     1
   1607   1611     1
   1607   1620     1
   1607   1626     1
   1605   1610     1
   1605   1626     1
   1605   1629     1
   1602   1608     1
   1602   1624     1
   1602   1628     1
   1601   1607     1
   1601   1622     1
   1600   1602     1
   1599   1602     1
   1598   1605     1
   1661   1666     1
   1659   1661     1
   1657   1662     1
   1655   1663     1
   1655   1664     1
   1655   1665     1
   1654   1657     1
   1650   1654     1
   1647   1654     1
   1647   1651     1
   1646   1653     1
   1645   1651     1
   1644   1647     1
   1644   1650     1
   1644   1653     1
   1642   1657     1
   1642   1653     1
   1642   1646     1
   1641   1655     1
   1641   1659     1
   1641   1646     1
   1641   1651     1
   1639   1644     1
   1639   1645     1
   1639   1653     1
   1639   1661     1
   1638   1661     1
   1638   1642     1
   1638   1654     1
   1638   1659     1
   1636   1641     1
   1636   1659     1
   1636   1662     1
   1633   1639     1
   1633   1657     1
   1633   1661     1
   1632   1638     1
   1632   1655     1
   1631   1633     1
   1630   1633     1
   1629   1636     1
   1692   1697     1
   1690   1692     1
   1688   1693     1
   1686   1694     1
   1686   1695     1
   1686   1696     1
   1684   1688     1
   1680   1684     1
   1679   1685     1
   1677   1684     1
   1675   1688     1
   1675   1683     1
   1675   1685     1
   1675   1680     1
   1674   1686     1
   1674   1690     1
   1674   1679     1
   1672   1677     1
   1672   1683     1
   1672   1685     1
   1672   1692     1
   1671   1692     1
   1671   1675     1
   1671   1684     1
   1671   1690     1
   1669   1674     1
   1669   1690     1
   1669   1693     1
   1666   1672     1
   1666   1688     1
   1666   1692     1
   1665   1671     1
   1665   1686     1
   1664   1666     1
   1663   1666     1
   1662   1669     1
   1725   1730     1
   1723   1725     1
   1721   1726     1
   1719   1727     1
   1719   1728     1
   1719   1729     1
   1718   1721     1
   1714   1718     1
   1711   1718     1
   1711   1715     1
   1710   1717     1
   1709   1715     1
   1708   1711     1
   1708   1714     1
   1708   1717     1
   1706   1721     1
   1706   1717     1
   1706   1710     1
   1705   1719     1
   1705   1723     1
   1705   1710     1
   1705   1715     1
   1703   1708     1
   1703   1709     1
   1703   1717     1
   1703   1725     1
   1702   1725     1
   1702   1706     1
   1702   1718     1
   1702   1723     1
   1700   1705     1
   1700   1723     1
   1700   1726     1
   1697   1703     1
   1697   1721     1
   1697   1725     1
   1696   1702     1
   1696   1719     1
   1695   1697     1
   1694   1697     1
   1693   1700     1
   1759   1764     1
   1757   1759     1
   1755   1760     1
   1753   1761     1
   1753   1762     1
   1753   1763     1
   1752   1755     1
   1748   1752     1
   1745   1752     1
   1744   1752     1
   1744   1747     1
   1743   1751     1
   1743   1748     1
   1742   1747     1
   1741   1744     1
   1741   1745     1
   1741   1751     1
   1739   1755     1
   1739   1751     1
   1739   1743     1
   1738   1753     1
   1738   1757     1
   1738   1743     1
   1738   1747     1
   1736   1741     1
   1736   1742     1
   1736   1751     1
   1736   1759     1
   1735   1759     1
   1735   1739     1
   1735   1752     1
   1735   1757     1
   1733   1738     1
   1733   1757     1
   1733   1760     1
   1730   1736     1
   1730   1755     1
   1730   1759     1
   1729   1735     1
   1729   1753     1
   1728   1730     1
   1727   1730     1
   1726   1733     1
   1793   1798     1
   1791   1793     1
   1789   1794     1
   1787   1795     1
   1787   1796     1
   1787   1797     1
   1786   1789     1
   1782   1786     1
   1779   1786     1
   1778   1786     1
   1778   1781     1
   1777   1785     1
   1777   1782     1
   1776   1781     1
   1775   1778     1
   1775   1779     1
   1775   1785     1
   1773   1789     1
   1773   1785     1
   1773   1777     1
   1772   1787     1
   1772   1791     1
   1772   1777     1
   1772   1781     1
   1770   1775     1
   1770   1776     1
   1770   1785     1
   1770   1793     1
   1769   1793     1
   1769   1773     1
   1769   1786     1
   1769   1791     1
   1767   1772     1
   1767   1791     1
   1767   1794     1
   1764   1770     1
   1764   1789     1
   1764   1793     1
   1763   1769     1
   1763   1787     1
   1762   1764     1
   1761   1764     1
   1760   1767     1
   1824   1829     1
   1822   1824     1
   1820   1825     1
   1818   1826     1
   1818   1827     1
   1818   1828     1
   1816   1820     1
   1812   1816     1
   1811   1817     1
   1809   1816     1
   1807   1820     1
   1807   1815     1
   1807   1817     1
   1807   1812     1
   1806   1818     1
   1806   1822     1
   1806   1811     1
   1804   1809     1
   1804   1815     1
   1804   1817     1
   1804   1824     1
   1803   1824     1
   1803   1807     1
   1803   1816     1
   1803   1822     1
   1801   1806     1
   1801   1822     1
   1801   1825     1
   1798   1804     1
   1798   1820     1
   1798   1824     1
   1797   1803     1
   1797   1818     1
   1796   1798     1
   1795   1798     1
   1794   1801     1
   1857   1862     1
   1855   1857     1
   1853   1858     1
   1851   1859     1
   1851   1860     1
   1851   1861     1
   1850   1853     1
   1846   1850     1
   1843   1850     1
   1843   1847     1
   1842   1849     1
   1841   1847     1
   1840   1843     1
   1840   1846     1
   1840   1849     1
   1838   1853     1
   1838   1849     1
   1838   1842     1
   1837   1851     1
   1837   1855     1
   1837   1842     1
   1837   1847     1
   1835   1840     1
   1835   1841     1
   1835   1849     1
   1835   1857     1
   1834   1857     1
   1834   1838     1
   1834   1850     1
   1834   1855     1
   1832   1837     1
   1832   1855     1
   1832   1858     1
   1829   1835     1
   1829   1853     1
   1829   1857     1
   1828   1834     1
   1828   1851     1
   1827   1829     1
   1826   1829     1
   1825   1832     1
   1888   1893     1
   1886   1888     1
   1884   1889     1
   1882   1890     1
   1882   1891     1
   1882   1892     1
   1880   1884     1
   1876   1880     1
   1875   1881     1
   1873   1880     1
   1871   1884     1
   1871   1879     1
   1871   1881     1
   1871   1876     1
   1870   1882     1
   1870   1886     1
   1870   1875     1
   1868   1873     1
   1868   1879     1
   1868   1881     1
   1868   1888     1
   1867   1888     1
   1867   1871     1
   1867   1880     1
   1867   1886     1
   1865   1870     1
   1865   1886     1
   1865   1889     1
   1862   1868     1
   1862   1884     1
   1862   1888     1
   1861   1867     1
   1861   1882     1
   1860   1862     1
   1859   1862     1
   1858   1865     1
   1918   1923     1
   1916   1918     1
   1914   1919     1
   1912   1920     1
   1912   1921     1
   1912   1922     1
   1910   1914     1
   1907   1910     1
   1906   1911     1
   1904   1910     1
   1902   1914     1
   1902   1908     1
   1902   1911     1
   1902   1907     1
   1901   1912     1
   1901   1916     1
   1901   1906     1
   1899   1904     1
   1899   1908     1
   1899   1911     1
   1899   1918     1
   1898   1918     1
   1898   1902     1
   1898   1910     1
   1898   1916     1
   1896   1901     1
   1896   1916     1
   1896   1919     1
   1893   1899     1
   1893   1914     1
   1893   1918     1
   1892   1898     1
   1892   1912     1
   1891   1893     1
   1890   1893     1
   1889   1896     1
   1951   1956     1
   1949   1951     1
   1947   1952     1
   1945   1953     1
   1945   1954     1
   1945   1955     1
   1944   1947     1
   1940   1944     1
   1937   1944     1
   1937   1941     1
   1936   1943     1
   1935   1941     1
   1934   1937     1
   1934   1940     1
   1934   1943     1
   1932   1947     1
   1932   1943     1
   1932   1936     1
   1931   1945     1
   1931   1949     1
   1931   1936     1
   1931   1941     1
   1929   1934     1
   1929   1935     1
   1929   1943     1
   1929   1951     1
   1928   1951     1
   1928   1932     1
   1928   1944     1
   1928   1949     1
   1926   1931     1
   1926   1949     1
   1926   1952     1
   1923   1929     1
   1923   1947     1
   1923   1951     1
   1922   1928     1
   1922   1945     1
   1921   1923     1
   1920   1923     1
   1919   1926     1
   1985   1990     1
   1983   1985     1
   1981   1986     1
   1979   1987     1
   1979   1988     1
   1979   1989     1
   1978   1981     1
   1974   1978     1
   1971   1978     1
   1970   1978     1
   1970   1973     1
   1969   1977     1
   1969   1974     1
   1968   1973     1
   1967   1970     1
   1967   1971     1
   1967   1977     1
   1965   1981     1
   1965   1977     1
   1965   1969     1
   1964   1979     1
   1964   1983     1
   1964   1969     1
   1964   1973     1
   1962   1967     1
   1962   1968     1
   1962   1977     1
   1962   1985     1
   1961   1985     1
   1961   1965     1
   1961   1978     1
   1961   1983     1
   1959   1964     1
   1959   1983     1
   1959   1986     1
   1956   1962     1
   1956   1981     1
   1956   1985     1
   1955   1961     1
   1955   1979     1
   1954   1956     1
   1953   1956     1
   1952   1959     1
   2015   2020     1
   2013   2015     1
   2011   2016     1
   2009   2017     1
   2009   2018     1
   2009   2019     1
   2007   2011     1
   2004   2007     1
   2003   2008     1
   2001   2007     1
   1999   2011     1
   1999   2005     1
   1999   2008     1
   1999   2004     1
   1998   2009     1
   1998   2013     1
   1998   2003     1
   1996   2001     1
   1996   2005     1
   1996   2008     1
   1996   2015     1
   1995   2015     1
   1995   1999     1
   1995   2007     1
   1995   2013     1
   1993   1998     1
   1993   2013     1
   1993   2016     1
   1990   1996     1
   1990   2011     1
   1990   2015     1
   1989   1995     1
   1989   2009     1
   1988   1990     1
   1987   1990     1
   1986   1993     1
   2048   2053     1
   2046   2048     1
   2044   2049     1
   2042   2050     1
   2042   2051     1
   2042   2052     1
   2041   2044     1
   2037   2041     1
   2034   2041     1
   2034   2038     1
   2033   2040     1
   2032   2038     1
   2031   2034     1
   2031   2037     1
   2031   2040     1
   2029   2044     1
   2029   2040     1
   2029   2033     1
   2028   2042     1
   2028   2046     1
   2028   2033     1
   2028   2038     1
   2026   2031     1
   2026   2032     1
   2026   2040     1
   2026   2048     1
   2025   2048     1
   2025   2029     1
   2025   2041     1
   2025   2046     1
   2023   2028     1
   2023   2046     1
   2023   2049     1
   2020   2026     1
   2020   2044     1
   2020   2048     1
   2019   2025     1
   2019   2042     1
   2018   2020     1
   2017   2020     1
   2016   2023     1
   2079   2084     1
   2077   2079     1
   2075   2080     1
   2073   2081     1
   2073   2082     1
   2073   2083     1
   2071   2075     1
   2067   2071     1
   2066   2072     1
   2064   2071     1
   2062   2075     1
   2062   2070     1
   2062   2072     1
   2062   2067     1
   2061   2073     1
   2061   2077     1
   2061   2066     1
   2059   2064     1
   2059   2070     1
   2059   2072     1
   2059   2079     1
   2058   2079     1
   2058   2062     1
   2058   2071     1
   2058   2077     1
   2056   2061     1
   2056   2077     1
   2056   2080     1
   2053   2059     1
   2053   2075     1
   2053   2079     1
   2052   2058     1
   2052   2073     1
   2051   2053     1
   2050   2053     1
   2049   2056     1
   2109   2114     1
   2107   2109     1
   2105   2110     1
   2103   2111     1
   2103   2112     1
   2103   2113     1
   2101   2105     1
   2098   2101     1
   2097   2102     1
   2095   2101     1
   2093   2105     1
   2093   2099     1
   2093   2102     1
   2093   2098     1
   2092   2103     1
   2092   2107     1
   2092   2097     1
   2090   2095     1
   2090   2099     1
   2090   2102     1
   2090   2109     1
   2089   2109     1
   2089   2093     1
   2089   2101     1
   2089   2107     1
   2087   2092     1
   2087   2107     1
   2087   2110     1
   2084   2090     1
   2084   2105     1
   2084   2109     1
   2083   2089     1
   2083   2103     1
   2082   2084     1
   2081   2084     1
   2080   2087     1
   2143   2148     1
   2141   2143     1
   2139   2144     1
   2137   2145     1
   2137   2146     1
   2137   2147     1
   2136   2139     1
   2132   2136     1
   2129   2136     1
   2128   2136     1
   2128   2131     1
   2127   2135     1
   2127   2132     1
   2126   2131     1
   2125   2128     1
   2125   2129     1
   2125   2135     1
   2123   2139     1
   2123   2135     1
   2123   2127     1
   2122   2137     1
   2122   2141     1
   2122   2127     1
   2122   2131     1
   2120   2125     1
   2120   2126     1
   2120   2135     1
   2120   2143     1
   2119   2143     1
   2119   2123     1
   2119   2136     1
   2119   2141     1
   2117   2122     1
   2117   2141     1
   2117   2144     1
   2114   2120     1
   2114   2139     1
   2114   2143     1
   2113   2119     1
   2113   2137     1
   2112   2114     1
   2111   2114     1
   2110   2117     1
   2176   2181     1
   2174   2176     1
   2172   2177     1
   2170   2178     1
   2170   2179     1
   2170   2180     1
   2169   2172     1
   2165   2169     1
   2162   2169     1
   2162   2166     1
   2161   2168     1
   2160   2166     1
   2159   2162     1
   2159   2165     1
   2159   2168     1
   2157   2172     1
   2157   2168     1
   2157   2161     1
   2156   2170     1
   2156   2174     1
   2156   2161     1
   2156   2166     1
   2154   2159     1
   2154   2160     1
   2154   2168     1
   2154   2176     1
   2153   2176     1
   2153   2157     1
   2153   2169     1
   2153   2174     1
   2151   2156     1
   2151   2174     1
   2151   2177     1
   2148   2154     1
   2148   2172     1
   2148   2176     1
   2147   2153     1
   2147   2170     1
   2146   2148     1
   2145   2148     1
   2144   2151     1
   2206   2211     1
   2204   2206     1
   2202   2207     1
   2200   2208     1
   2200   2209     1
   2200   2210     1
   2198   2202     1
   2195   2198     1
   2194   2199     1
   2192   2198     1
   2190   2202     1
   2190   2196     1
   2190   2199     1
   2190   2195     1
   2189   2200     1
   2189   2204     1
   2189   2194     1
   2187   2192     1
   2187   2196     1
   2187   2199     1
   2187   2206     1
   2186   2206     1
   2186   2190     1
   2186   2198     1
   2186   2204     1
   2184   2189     1
   2184   2204     1
   2184   2207     1
   2181   2187     1
   2181   2202     1
   2181   2206     1
   2180   2186     1
   2180   2200     1
   2179   2181     1
   2178   2181     1
   2177   2184     1
   2240   2245     1
   2238   2240     1
   2236   2241     1
   2234   2242     1
   2234   2243     1
   2234   2244     1
   2233   2236     1
   2229   2233     1
   2226   2233     1
   2225   2233     1
   2225   2228     1
   2224   2232     1
   2224   2229     1
   2223   2228     1
   2222   2225     1
   2222   2226     1
   2222   2232     1
   2220   2236     1
   2220   2232     1
   2220   2224     1
   2219   2234     1
   2219   2238     1
   2219   2224     1
   2219   2228     1
   2217   2222     1
   2217   2223     1
   2217   2232     1
   2217   2240     1
   2216   2240     1
   2216   2220     1
   2216   2233     1
   2216   2238     1
   2214   2219     1
   2214   2238     1
   2214   2241     1
   2211   2217     1
   2211   2236     1
   2211   2240     1
   2210   2216     1
   2210   2234     1
   2209   2211     1
   2208   2211     1
   2207   2214     1
   2270   2275     1
   2268   2270     1
   2266   2271     1
   2264   2272     1
   2264   2273     1
   2264   2274     1
   2262   2266     1
   2259   2262     1
   2258   2263     1
   2256   2262     1
   2254   2266     1
   2254   2260     1
   2254   2263     1
   2254   2259     1
   2253   2264     1
   2253   2268     1
   2253   2258     1
   2251   2256     1
   2251   2260     1
   2251   2263     1
   2251   2270     1
   2250   2270     1
   2250   2254     1
   2250   2262     1
   2250   2268     1
   2248   2253     1
   2248   2268     1
   2248   2271     1
   2245   2251     1
   2245   2266     1
   2245   2270     1
   2244   2250     1
   2244   2264     1
   2243   2245     1
   2242   2245     1
   2241   2248     1
   2301   2306     1
   2299   2301     1
   2297   2302     1
   2295   2303     1
   2295   2304     1
   2295   2305     1
   2293   2297     1
   2289   2293     1
   2288   2294     1
   2286   2293     1
   2284   2297     1
   2284   2292     1
   2284   2294     1
   2284   2289     1
   2283   2295     1
   2283   2299     1
   2283   2288     1
   2281   2286     1
   2281   2292     1
   2281   2294     1
   2281   2301     1
   2280   2301     1
   2280   2284     1
   2280   2293     1
   2280   2299     1
   2278   2283     1
   2278   2299     1
   2278   2302     1
   2275   2281     1
   2275   2297     1
   2275   2301     1
   2274   2280     1
   2274   2295     1
   2273   2275     1
   2272   2275     1
   2271   2278     1
   2335   2340     1
   2333   2335     1
   2331   2336     1
   2329   2337     1
   2329   2338     1
   2329   2339     1
   2328   2331     1
   2324   2328     1
   2321   2328     1
   2320   2328     1
   2320   2323     1
   2319   2327     1
   2319   2324     1
   2318   2323     1
   2317   2320     1
   2317   2321     1
   2317   2327     1
   2315   2331     1
   2315   2327     1
   2315   2319     1
   2314   2329     1
   2314   2333     1
   2314   2319     1
   2314   2323     1
   2312   2317     1
   2312   2318     1
   2312   2327     1
   2312   2335     1
   2311   2335     1
   2311   2315     1
   2311   2328     1
   2311   2333     1
   2309   2314     1
   2309   2333     1
   2309   2336     1
   2306   2312     1
   2306   2331     1
   2306   2335     1
   2305   2311     1
   2305   2329     1
   2304   2306     1
   2303   2306     1
   2302   2309     1
   2365   2370     1
   2363   2365     1
   2361   2366     1
   2359   2367     1
   2359   2368     1
   2359   2369     1
   2357   2361     1
   2354   2357     1
   2353   2358     1
   2351   2357     1
   2349   2361     1
   2349   2355     1
   2349   2358     1
   2349   2354     1
   2348   2359     1
   2348   2363     1
   2348   2353     1
   2346   2351     1
   2346   2355     1
   2346   2358     1
   2346   2365     1
   2345   2365     1
   2345   2349     1
   2345   2357     1
   2345   2363     1
   2343   2348     1
   2343   2363     1
   2343   2366     1
   2340   2346     1
   2340   2361     1
   2340   2365     1
   2339   2345     1
   2339   2359     1
   2338   2340     1
   2337   2340     1
   2336   2343     1
   2398   2403     1
   2396   2398     1
   2394   2399     1
   2392   2400     1
   2392   2401     1
   2392   2402     1
   2391   2394     1
   2387   2391     1
   2384   2391     1
   2384   2388     1
   2383   2390     1
   2382   2388     1
   2381   2384     1
   2381   2387     1
   2381   2390     1
   2379   2394     1
   2379   2390     1
   2379   2383     1
   2378   2392     1
   2378   2396     1
   2378   2383     1
   2378   2388     1
   2376   2381     1
   2376   2382     1
   2376   2390     1
   2376   2398     1
   2375   2398     1
   2375   2379     1
   2375   2391     1
   2375   2396     1
   2373   2378     1
   2373   2396     1
   2373   2399     1
   2370   2376     1
   2370   2394     1
   2370   2398     1
   2369   2375     1
   2369   2392     1
   2368   2370     1
   2367   2370     1
   2366   2373     1
   2428   2433     1
   2426   2428     1
   2424   2429     1
   2422   2430     1
   2422   2431     1
   2422   2432     1
   2420   2424     1
   2417   2420     1
   2416   2421     1
   2414   2420     1
   2412   2424     1
   2412   2418     1
   2412   2421     1
   2412   2417     1
   2411   2422     1
   2411   2426     1
   2411   2416     1
   2409   2414     1
   2409   2418     1
   2409   2421     1
   2409   2428     1
   2408   2428     1
   2408   2412     1
   2408   2420     1
   2408   2426     1
   2406   2411     1
   2406   2426     1
   2406   2429     1
   2403   2409     1
   2403   2424     1
   2403   2428     1
   2402   2408     1
   2402   2422     1
   2401   2403     1
   2400   2403     1
   2399   2406     1
   2461   2466     1
   2459   2461     1
   2457   2462     1
   2455   2463     1
   2455   2464     1
   2455   2465     1
   2454   2457     1
   2450   2454     1
   2447   2454     1
   2447   2451     1
   2446   2453     1
   2445   2451     1
   2444   2447     1
   2444   2450     1
   2444   2453     1
   2442   2457     1
   2442   2453     1
   2442   2446     1
   2441   2455     1
   2441   2459     1
   2441   2446     1
   2441   2451     1
   2439   2444     1
   2439   2445     1
   2439   2453     1
   2439   2461     1
   2438   2461     1
   2438   2442     1
   2438   2454     1
   2438   2459     1
   2436   2441     1
   2436   2459     1
   2436   2462     1
   2433   2439     1
   2433   2457     1
   2433   2461     1
   2432   2438     1
   2432   2455     1
   2431   2433     1
   2430   2433     1
   2429   2436     1
   2492   2497     1
   2490   2492     1
   2488   2493     1
   2486   2494     1
   2486   2495     1
   2486   2496     1
   2484   2488     1
   2480   2484     1
   2479   2485     1
   2477   2484     1
   2475   2488     1
   2475   2483     1
   2475   2485     1
   2475   2480     1
   2474   2486     1
   2474   2490     1
   2474   2479     1
   2472   2477     1
   2472   2483     1
   2472   2485     1
   2472   2492     1
   2471   2492     1
   2471   2475     1
   2471   2484     1
   2471   2490     1
   2469   2474     1
   2469   2490     1
   2469   2493     1
   2466   2472     1
   2466   2488     1
   2466   2492     1
   2465   2471     1
   2465   2486     1
   2464   2466     1
   2463   2466     1
   2462   2469     1
   2525   2530     1
   2523   2525     1
   2521   2526     1
   2519   2527     1
   2519   2528     1
   2519   2529     1
   2518   2521     1
   2514   2518     1
   2511   2518     1
   2511   2515     1
   2510   2517     1
   2509   2515     1
   2508   2511     1
   2508   2514     1
   2508   2517     1
   2506   2521     1
   2506   2517     1
   2506   2510     1
   2505   2519     1
   2505   2523     1
   2505   2510     1
   2505   2515     1
   2503   2508     1
   2503   2509     1
   2503   2517     1
   2503   2525     1
   2502   2525     1
   2502   2506     1
   2502   2518     1
   2502   2523     1
   2500   2505     1
   2500   2523     1
   2500   2526     1
   2497   2503     1
   2497   2521     1
   2497   2525     1
   2496   2502     1
   2496   2519     1
   2495   2497     1
   2494   2497     1
   2493   2500     1
   2559   2564     1
   2557   2559     1
   2555   2560     1
   2553   2561     1
   2553   2562     1
   2553   2563     1
   2552   2555     1
   2548   2552     1
   2545   2552     1
   2544   2552     1
   2544   2547     1
   2543   2551     1
   2543   2548     1
   2542   2547     1
   2541   2544     1
   2541   2545     1
   2541   2551     1
   2539   2555     1
   2539   2551     1
   2539   2543     1
   2538   2553     1
   2538   2557     1
   2538   2543     1
   2538   2547     1
   2536   2541     1
   2536   2542     1
   2536   2551     1
   2536   2559     1
   2535   2559     1
   2535   2539     1
   2535   2552     1
   2535   2557     1
   2533   2538     1
   2533   2557     1
   2533   2560     1
   2530   2536     1
   2530   2555     1
   2530   2559     1
   2529   2535     1
   2529   2553     1
   2528   2530     1
   2527   2530     1
   2526   2533     1
   2593   2598     1
   2591   2593     1
   2589   2594     1
   2587   2595     1
   2587   2596     1
   2587   2597     1
   2586   2589     1
   2582   2586     1
   2579   2586     1
   2578   2586     1
   2578   2581     1
   2577   2585     1
   2577   2582     1
   2576   2581     1
   2575   2578     1
   2575   2579     1
   2575   2585     1
   2573   2589     1
   2573   2585     1
   2573   2577     1
   2572   2587     1
   2572   2591     1
   2572   2577     1
   2572   2581     1
   2570   2575     1
   2570   2576     1
   2570   2585     1
   2570   2593     1
   2569   2593     1
   2569   2573     1
   2569   2586     1
   2569   2591     1
   2567   2572     1
   2567   2591     1
   2567   2594     1
   2564   2570     1
   2564   2589     1
   2564   2593     1
   2563   2569     1
   2563   2587     1
   2562   2564     1
   2561   2564     1
   2560   2567     1
   2627   2632     1
   2625   2627     1
   2623   2628     1
   2621   2629     1
   2621   2630     1
   2621   2631     1
   2620   2623     1
   2616   2620     1
   2613   2620     1
   2612   2620     1
   2612   2615     1
   2611   2619     1
   2611   2616     1
   2610   2615     1
   2609   2612     1
   2609   2613     1
   2609   2619     1
   2607   2623     1
   2607   2619     1
   2607   2611     1
   2606   2621     1
   2606   2625     1
   2606   2611     1
   2606   2615     1
   2604   2609     1
   2604   2610     1
   2604   2619     1
   2604   2627     1
   2603   2627     1
   2603   2607     1
   2603   2620     1
   2603   2625     1
   2601   2606     1
   2601   2625     1
   2601   2628     1
   2598   2604     1
   2598   2623     1
   2598   2627     1
   2597   2603     1
   2597   2621     1
   2596   2598     1
   2595   2598     1
   2594   2601     1
   2658   2663     1
   2656   2658     1
   2654   2659     1
   2652   2660     1
   2652   2661     1
   2652   2662     1
   2650   2654     1
   2646   2650     1
   2645   2651     1
   2643   2650     1
   2641   2654     1
   2641   2649     1
   2641   2651     1
   2641   2646     1
   2640   2652     1
   2640   2656     1
   2640   2645     1
   2638   2643     1
   2638   2649     1
   2638   2651     1
   2638   2658     1
   2637   2658     1
   2637   2641     1
   2637   2650     1
   2637   2656     1
   2635   2640     1
   2635   2656     1
   2635   2659     1
   2632   2638     1
   2632   2654     1
   2632   2658     1
   2631   2637     1
   2631   2652     1
   2630   2632     1
   2629   2632     1
   2628   2635     1
   2688   2693     1
   2686   2688     1
   2684   2689     1
   2682   2690     1
   2682   2691     1
   2682   2692     1
   2680   2684     1
   2677   2680     1
   2676   2681     1
   2674   2680     1
   2672   2684     1
   2672   2678     1
   2672   2681     1
   2672   2677     1
   2671   2682     1
   2671   2686     1
   2671   2676     1
   2669   2674     1
   2669   2678     1
   2669   2681     1
   2669   2688     1
   2668   2688     1
   2668   2672     1
   2668   2680     1
   2668   2686     1
   2666   2671     1
   2666   2686     1
   2666   2689     1
   2663   2669     1
   2663   2684     1
   2663   2688     1
   2662   2668     1
   2662   2682     1
   2661   2663     1
   2660   2663     1
   2659   2666     1
   2718   2723     1
   2716   2718     1
   2714   2719     1
   2712   2720     1
   2712   2721     1
   2712   2722     1
   2710   2714     1
   2707   2710     1
   2706   2711     1
   2704   2710     1
   2702   2714     1
   2702   2708     1
   2702   2711     1
   2702   2707     1
   2701   2712     1
   2701   2716     1
   2701   2706     1
   2699   2704     1
   2699   2708     1
   2699   2711     1
   2699   2718     1
   2698   2718     1
   2698   2702     1
   2698   2710     1
   2698   2716     1
   2696   2701     1
   2696   2716     1
   2696   2719     1
   2693   2699     1
   2693   2714     1
   2693   2718     1
   2692   2698     1
   2692   2712     1
   2691   2693     1
   2690   2693     1
   2689   2696     1
   2748   2753     1
   2746   2748     1
   2744   2749     1
   2742   2750     1
   2742   2751     1
   2742   2752     1
   2740   2744     1
   2737   2740     1
   2736   2741     1
   2734   2740     1
   2732   2744     1
   2732   2738     1
   2732   2741     1
   2732   2737     1
   2731   2742     1
   2731   2746     1
   2731   2736     1
   2729   2734     1
   2729   2738     1
   2729   2741     1
   2729   2748     1
   2728   2748     1
   2728   2732     1
   2728   2740     1
   2728   2746     1
   2726   2731     1
   2726   2746     1
   2726   2749     1
   2723   2729     1
   2723   2744     1
   2723   2748     1
   2722   2728     1
   2722   2742     1
   2721   2723     1
   2720   2723     1
   2719   2726     1
   2776   2778     1
   2770   2774     1
   2767   2770     1
   2766   2771     1
   2764   2770     1
   2762   2774     1
   2762   2768     1
   2762   2771     1
   2762   2767     1
   2761   2772     1
   2761   2776     1
   2761   2766     1
   2759   2764     1
   2759   2768     1
   2759   2771     1
   2759   2778     1
   2758   2778     1
   2758   2762     1
   2758   2770     1
   2758   2776     1
   2756   2761     1
   2756   2776     1
   2753   2759     1
   2753   2774     1
   2753   2778     1
   2752   2758     1
   2752   2772     1
   2751   2753     1
   2750   2753     1
   2749   2756     1
     29     32     1
     29     31     1
     27     29     1
     27     30     1
     27     33     1
     26     31     1
     23     24     1
     22     24     1
     19     21     1
     19     24     1
     18     22     1
     18     23     1
     17     19     1
     15     19     1
     13     25     1
     13     15     1
     11     29     1
     10     12     1
     10     25     1
     10     26     1
     10     29     1
     10     30     1
      9     13     1
      9     27     1
      9     31     1
      8     27     1
      8     29     1
      7      9     1
      7     27     1
      7     28     1
      7     32     1
      6     10     1
      6     29     1
      5      7     1
      5      8     1
      5     26     1
      4      7     1
      4      8     1
      4     26     1
      3     27     1
      2      7     1
      1      4     1
      1      5     1
      1      6     1
     59     62     1
     59     61     1
     57     59     1
     57     60     1
     57     63     1
     56     61     1
     53     55     1
     51     53     1
     49     51     1
     49     52     1
     48     53     1
     47     54     1
     47     49     1
     47     50     1
     45     59     1
     45     49     1
     45     53     1
     44     46     1
     44     54     1
     44     56     1
     44     59     1
     44     60     1
     43     47     1
     43     57     1
     43     61     1
     42     57     1
     42     59     1
     41     43     1
     41     57     1
     41     58     1
     41     62     1
     40     44     1
     40     59     1
     39     41     1
     39     42     1
     39     56     1
     38     41     1
     38     42     1
     38     56     1
     37     57     1
     36     41     1
     33     38     1
     33     39     1
     89     92     1
     89     91     1
     87     89     1
     87     90     1
     87     93     1
     86     91     1
     83     85     1
     81     83     1
     79     81     1
     79     82     1
     78     83     1
     77     84     1
     77     79     1
     77     80     1
     75     89     1
     75     79     1
     75     83     1
     74     76     1
     74     84     1
     74     86     1
     74     89     1
     74     90     1
     73     77     1
     73     87     1
     73     91     1
     72     87     1
     72     89     1
     71     73     1
     71     87     1
     71     88     1
     71     92     1
     70     74     1
     70     89     1
     69     71     1
     69     72     1
     69     86     1
     68     71     1
     68     72     1
     68     86     1
     67     87     1
     66     71     1
     63     68     1
     63     69     1
    119    122     1
    119    121     1
    117    119     1
    117    120     1
    117    123     1
    116    121     1
    113    115     1
    111    113     1
    109    111     1
    109    112     1
    108    113     1
    107    114     1
    107    109     1
    107    110     1
    105    119     1
    105    109     1
    105    113     1
    104    106     1
    104    114     1
    104    116     1
    104    119     1
    104    120     1
    103    107     1
    103    117     1
    103    121     1
    102    117     1
    102    119     1
    101    103     1
    101    117     1
    101    118     1
    101    122     1
    100    104     1
    100    119     1
     99    101     1
     99    102     1
     99    116     1
     98    101     1
     98    102     1
     98    116     1
     97    117     1
     96    101     1
     93     98     1
     93     99     1
    149    152     1
    149    151     1
    147    149     1
    147    150     1
    147    153     1
    146    151     1
    143    145     1
    141    143     1
    139    141     1
    139    142     1
    138    143     1
    137    144     1
    137    139     1
    137    140     1
    135    149     1
    135    139     1
    135    143     1
    134    136     1
    134    144     1
    134    146     1
    134    149     1
    134    150     1
    133    137     1
    133    147     1
    133    151     1
    132    147     1
    132    149     1
    131    133     1
    131    147     1
    131    148     1
    131    152     1
    130    134     1
    130    149     1
    129    131     1
    129    132     1
    129    146     1
    128    131     1
    128    132     1
    128    146     1
    127    147     1
    126    131     1
    123    128     1
    123    129     1
    179    182     1
    179    181     1
    177    179     1
    177    180     1
    177    183     1
    176    181     1
    173    175     1
    171    173     1
    169    171     1
    169    172     1
    168    173     1
    167    174     1
    167    169     1
    167    170     1
    165    179     1
    165    169     1
    165    173     1
    164    166     1
    164    174     1
    164    176     1
    164    179     1
    164    180     1
    163    167     1
    163    177     1
    163    181     1
    162    177     1
    162    179     1
    161    163     1
    161    177     1
    161    178     1
    161    182     1
    160    164     1
    160    179     1
    159    161     1
    159    162     1
    159    176     1
    158    161     1
    158    162     1
    158    176     1
    157    177     1
    156    161     1
    153    158     1
    153    159     1
    212    215     1
    212    214     1
    210    212     1
    210    213     1
    210    216     1
    209    214     1
    206    208     1
    203    204     1
    202    204     1
    200    206     1
    199    202     1
    199    203     1
    197    208     1
    197    199     1
    195    212     1
    194    196     1
    194    208     1
    194    209     1
    194    212     1
    194    213     1
    193    197     1
    193    210     1
    193    214     1
    192    210     1
    192    212     1
    191    193     1
    191    210     1
    191    211     1
    191    215     1
    190    194     1
    190    212     1
    189    191     1
    189    192     1
    189    209     1
    188    191     1
    188    192     1
    188    209     1
    187    210     1
    186    191     1
    183    188     1
    183    189     1
    245    248     1
    245    247     1
    243    245     1
    243    246     1
    243    249     1
    242    247     1
    239    241     1
    236    237     1
    235    237     1
    233    239     1
    232    235     1
    232    236     1
    230    241     1
    230    232     1
    228    245     1
    227    229     1
    227    241     1
    227    242     1
    227    245     1
    227    246     1
    226    230     1
    226    243     1
    226    247     1
    225    243     1
    225    245     1
    224    226     1
    224    243     1
    224    244     1
    224    248     1
    223    227     1
    223    245     1
    222    224     1
    222    225     1
    222    242     1
    221    224     1
    221    225     1
    221    242     1
    220    243     1
    219    224     1
    216    221     1
    216    222     1
    278    281     1
    278    280     1
    276    278     1
    276    279     1
    276    282     1
    275    280     1
    272    274     1
    269    270     1
    268    270     1
    266    272     1
    265    268     1
    265    269     1
    263    274     1
    263    265     1
    261    278     1
    260    262     1
    260    274     1
    260    275     1
    260    278     1
    260    279     1
    259    263     1
    259    276     1
    259    280     1
    258    276     1
    258    278     1
    257    259     1
    257    276     1
    257    277     1
    257    281     1
    256    260     1
    256    278     1
    255    257     1
    255    258     1
    255    275     1
    254    257     1
    254    258     1
    254    275     1
    253    276     1
    252    257     1
    249    254     1
    249    255     1
    309    312     1
    309    311     1
    307    309     1
    307    310     1
    307    313     1
    306    311     1
    302    303     1
    301    303     1
    298    300     1
    298    303     1
    297    301     1
    297    302     1
    296    304     1
    296    298     1
    296    299     1
    294    309     1
    294    298     1
    293    295     1
    293    304     1
    293    306     1
    293    309     1
    293    310     1
    292    296     1
    292    307     1
    292    311     1
    291    307     1
    291    309     1
    290    292     1
    290    307     1
    290    308     1
    290    312     1
    289    293     1
    289    309     1
    288    290     1
    288    291     1
    288    306     1
    287    290     1
    287    291     1
    287    306     1
    286    307     1
    285    290     1
    282    287     1
    282    288     1
    343    346     1
    343    345     1
    341    343     1
    341    344     1
    341    347     1
    340    345     1
    337    338     1
    336    338     1
    333    335     1
    333    338     1
    332    336     1
    332    337     1
    331    333     1
    329    333     1
    327    339     1
    327    329     1
    325    343     1
    324    326     1
    324    339     1
    324    340     1
    324    343     1
    324    344     1
    323    327     1
    323    341     1
    323    345     1
    322    341     1
    322    343     1
    321    323     1
    321    341     1
    321    342     1
    321    346     1
    320    324     1
    320    343     1
    319    321     1
    319    322     1
    319    340     1
    318    321     1
    318    322     1
    318    340     1
    317    341     1
    316    321     1
    313    318     1
    313    319     1
    377    380     1
    377    379     1
    375    377     1
    375    378     1
    375    381     1
    374    379     1
    371    372     1
    370    372     1
    367    369     1
    367    372     1
    366    370     1
    366    371     1
    365    367     1
    363    367     1
    361    373     1
    361    363     1
    359    377     1
    358    360     1
    358    373     1
    358    374     1
    358    377     1
    358    378     1
    357    361     1
    357    375     1
    357    379     1
    356    375     1
    356    377     1
    355    357     1
    355    375     1
    355    376     1
    355    380     1
    354    358     1
    354    377     1
    353    355     1
    353    356     1
    353    374     1
    352    355     1
    352    356     1
    352    374     1
    351    375     1
    350    355     1
    347    352     1
    347    353     1
    411    414     1
    411    413     1
    409    411     1
    409    412     1
    409    415     1
    408    413     1
    405    406     1
    404    406     1
    401    403     1
    401    406     1
    400    404     1
    400    405     1
    399    401     1
    397    401     1
    395    407     1
    395    397     1
    393    411     1
    392    394     1
    392    407     1
    392    408     1
    392    411     1
    392    412     1
    391    395     1
    391    409     1
    391    413     1
    390    409     1
    390    411     1
    389    391     1
    389    409     1
    389    410     1
    389    414     1
    388    392     1
    388    411     1
    387    389     1
    387    390     1
    387    408     1
    386    389     1
    386    390     1
    386    408     1
    385    409     1
    384    389     1
    381    386     1
    381    387     1
    441    444     1
    441    443     1
    439    441     1
    439    442     1
    439    445     1
    438    443     1
    435    437     1
    433    435     1
    431    433     1
    431    434     1
    430    435     1
    429    436     1
    429    431     1
    429    432     1
    427    441     1
    427    431     1
    427    435     1
    426    428     1
    426    436     1
    426    438     1
    426    441     1
    426    442     1
    425    429     1
    425    439     1
    425    443     1
    424    439     1
    424    441     1
    423    425     1
    423    439     1
    423    440     1
    423    444     1
    422    426     1
    422    441     1
    421    423     1
    421    424     1
    421    438     1
    420    423     1
    420    424     1
    420    438     1
    419    439     1
    418    423     1
    415    420     1
    415    421     1
    471    474     1
    471    473     1
    469    471     1
    469    472     1
    469    475     1
    468    473     1
    465    467     1
    463    465     1
    461    463     1
    461    464     1
    460    465     1
    459    466     1
    459    461     1
    459    462     1
    457    471     1
    457    461     1
    457    465     1
    456    458     1
    456    466     1
    456    468     1
    456    471     1
    456    472     1
    455    459     1
    455    469     1
    455    473     1
    454    469     1
    454    471     1
    453    455     1
    453    469     1
    453    470     1
    453    474     1
    452    456     1
    452    471     1
    451    453     1
    451    454     1
    451    468     1
    450    453     1
    450    454     1
    450    468     1
    449    469     1
    448    453     1
    445    450     1
    445    451     1
    501    504     1
    501    503     1
    499    501     1
    499    502     1
    499    505     1
    498    503     1
    495    497     1
    493    495     1
    491    493     1
    491    494     1
    490    495     1
    489    496     1
    489    491     1
    489    492     1
    487    501     1
    487    491     1
    487    495     1
    486    488     1
    486    496     1
    486    498     1
    486    501     1
    486    502     1
    485    489     1
    485    499     1
    485    503     1
    484    499     1
    484    501     1
    483    485     1
    483    499     1
    483    500     1
    483    504     1
    482    486     1
    482    501     1
    481    483     1
    481    484     1
    481    498     1
    480    483     1
    480    484     1
    480    498     1
    479    499     1
    478    483     1
    475    480     1
    475    481     1
    535    538     1
    535    537     1
    533    535     1
    533    536     1
    533    539     1
    532    537     1
    529    530     1
    528    530     1
    525    527     1
    525    530     1
    524    528     1
    524    529     1
    523    525     1
    521    525     1
    519    531     1
    519    521     1
    517    535     1
    516    518     1
    516    531     1
    516    532     1
    516    535     1
    516    536     1
    515    519     1
    515    533     1
    515    537     1
    514    533     1
    514    535     1
    513    515     1
    513    533     1
    513    534     1
    513    538     1
    512    516     1
    512    535     1
    511    513     1
    511    514     1
    511    532     1
    510    513     1
    510    514     1
    510    532     1
    509    533     1
    508    513     1
    505    510     1
    505    511     1
    566    569     1
    566    568     1
    564    566     1
    564    567     1
    564    570     1
    563    568     1
    559    560     1
    558    560     1
    555    557     1
    555    560     1
    554    558     1
    554    559     1
    553    561     1
    553    555     1
    553    556     1
    551    566     1
    551    555     1
    550    552     1
    550    561     1
    550    563     1
    550    566     1
    550    567     1
    549    553     1
    549    564     1
    549    568     1
    548    564     1
    548    566     1
    547    549     1
    547    564     1
    547    565     1
    547    569     1
    546    550     1
    546    566     1
    545    547     1
    545    548     1
    545    563     1
    544    547     1
    544    548     1
    544    563     1
    543    564     1
    542    547     1
    539    544     1
    539    545     1
    600    603     1
    600    602     1
    598    600     1
    598    601     1
    598    604     1
    597    602     1
    594    595     1
    593    595     1
    590    592     1
    590    595     1
    589    593     1
    589    594     1
    588    590     1
    586    590     1
    584    596     1
    584    586     1
    582    600     1
    581    583     1
    581    596     1
    581    597     1
    581    600     1
    581    601     1
    580    584     1
    580    598     1
    580    602     1
    579    598     1
    579    600     1
    578    580     1
    578    598     1
    578    599     1
    578    603     1
    577    581     1
    577    600     1
    576    578     1
    576    579     1
    576    597     1
    575    578     1
    575    579     1
    575    597     1
    574    598     1
    573    578     1
    570    575     1
    570    576     1
    634    637     1
    634    636     1
    632    634     1
    632    635     1
    632    638     1
    631    636     1
    628    629     1
    627    629     1
    624    626     1
    624    629     1
    623    627     1
    623    628     1
    622    624     1
    620    624     1
    618    630     1
    618    620     1
    616    634     1
    615    617     1
    615    630     1
    615    631     1
    615    634     1
    615    635     1
    614    618     1
    614    632     1
    614    636     1
    613    632     1
    613    634     1
    612    614     1
    612    632     1
    612    633     1
    612    637     1
    611    615     1
    611    634     1
    610    612     1
    610    613     1
    610    631     1
    609    612     1
    609    613     1
    609    631     1
    608    632     1
    607    612     1
    604    609     1
    604    610     1
    664    667     1
    664    666     1
    662    664     1
    662    665     1
    662    668     1
    661    666     1
    658    660     1
    656    658     1
    654    656     1
    654    657     1
    653    658     1
    652    659     1
    652    654     1
    652    655     1
    650    664     1
    650    654     1
    650    658     1
    649    651     1
    649    659     1
    649    661     1
    649    664     1
    649    665     1
    648    652     1
    648    662     1
    648    666     1
    647    662     1
    647    664     1
    646    648     1
    646    662     1
    646    663     1
    646    667     1
    645    649     1
    645    664     1
    644    646     1
    644    647     1
    644    661     1
    643    646     1
    643    647     1
    643    661     1
    642    662     1
    641    646     1
    638    643     1
    638    644     1
    698    701     1
    698    700     1
    696    698     1
    696    699     1
    696    702     1
    695    700     1
    692    693     1
    691    693     1
    688    690     1
    688    693     1
    687    691     1
    687    692     1
    686    688     1
    684    688     1
    682    694     1
    682    684     1
    680    698     1
    679    681     1
    679    694     1
    679    695     1
    679    698     1
    679    699     1
    678    682     1
    678    696     1
    678    700     1
    677    696     1
    677    698     1
    676    678     1
    676    696     1
    676    697     1
    676    701     1
    675    679     1
    675    698     1
    674    676     1
    674    677     1
    674    695     1
    673    676     1
    673    677     1
    673    695     1
    672    696     1
    671    676     1
    668    673     1
    668    674     1
    728    731     1
    728    730     1
    726    728     1
    726    729     1
    726    732     1
    725    730     1
    722    724     1
    720    722     1
    718    720     1
    718    721     1
    717    722     1
    716    723     1
    716    718     1
    716    719     1
    714    728     1
    714    718     1
    714    722     1
    713    715     1
    713    723     1
    713    725     1
    713    728     1
    713    729     1
    712    716     1
    712    726     1
    712    730     1
    711    726     1
    711    728     1
    710    712     1
    710    726     1
    710    727     1
    710    731     1
    709    713     1
    709    728     1
    708    710     1
    708    711     1
    708    725     1
    707    710     1
    707    711     1
    707    725     1
    706    726     1
    705    710     1
    702    707     1
    702    708     1
    761    764     1
    761    763     1
    759    761     1
    759    762     1
    759    765     1
    758    763     1
    755    757     1
    752    753     1
    751    753     1
    749    755     1
    748    751     1
    748    752     1
    746    757     1
    746    748     1
    744    761     1
    743    745     1
    743    757     1
    743    758     1
    743    761     1
    743    762     1
    742    746     1
    742    759     1
    742    763     1
    741    759     1
    741    761     1
    740    742     1
    740    759     1
    740    760     1
    740    764     1
    739    743     1
    739    761     1
    738    740     1
    738    741     1
    738    758     1
    737    740     1
    737    741     1
    737    758     1
    736    759     1
    735    740     1
    732    737     1
    732    738     1
    794    797     1
    794    796     1
    792    794     1
    792    795     1
    792    798     1
    791    796     1
    788    790     1
    785    786     1
    784    786     1
    782    788     1
    781    784     1
    781    785     1
    779    790     1
    779    781     1
    777    794     1
    776    778     1
    776    790     1
    776    791     1
    776    794     1
    776    795     1
    775    779     1
    775    792     1
    775    796     1
    774    792     1
    774    794     1
    773    775     1
    773    792     1
    773    793     1
    773    797     1
    772    776     1
    772    794     1
    771    773     1
    771    774     1
    771    791     1
    770    773     1
    770    774     1
    770    791     1
    769    792     1
    768    773     1
    765    770     1
    765    771     1
    828    831     1
    828    830     1
    826    828     1
    826    829     1
    826    832     1
    825    830     1
    822    823     1
    821    823     1
    818    820     1
    818    823     1
    817    821     1
    817    822     1
    816    818     1
    814    818     1
    812    824     1
    812    814     1
    810    828     1
    809    811     1
    809    824     1
    809    825     1
    809    828     1
    809    829     1
    808    812     1
    808    826     1
    808    830     1
    807    826     1
    807    828     1
    806    808     1
    806    826     1
    806    827     1
    806    831     1
    805    809     1
    805    828     1
    804    806     1
    804    807     1
    804    825     1
    803    806     1
    803    807     1
    803    825     1
    802    826     1
    801    806     1
    798    803     1
    798    804     1
    858    861     1
    858    860     1
    856    858     1
    856    859     1
    856    862     1
    855    860     1
    852    854     1
    850    852     1
    848    850     1
    848    851     1
    847    852     1
    846    853     1
    846    848     1
    846    849     1
    844    858     1
    844    848     1
    844    852     1
    843    845     1
    843    853     1
    843    855     1
    843    858     1
    843    859     1
    842    846     1
    842    856     1
    842    860     1
    841    856     1
    841    858     1
    840    842     1
    840    856     1
    840    857     1
    840    861     1
    839    843     1
    839    858     1
    838    840     1
    838    841     1
    838    855     1
    837    840     1
    837    841     1
    837    855     1
    836    856     1
    835    840     1
    832    837     1
    832    838     1
    892    895     1
    892    894     1
    890    892     1
    890    893     1
    890    896     1
    889    894     1
    886    887     1
    885    887     1
    882    884     1
    882    887     1
    881    885     1
    881    886     1
    880    882     1
    878    882     1
    876    888     1
    876    878     1
    874    892     1
    873    875     1
    873    888     1
    873    889     1
    873    892     1
    873    893     1
    872    876     1
    872    890     1
    872    894     1
    871    890     1
    871    892     1
    870    872     1
    870    890     1
    870    891     1
    870    895     1
    869    873     1
    869    892     1
    868    870     1
    868    871     1
    868    889     1
    867    870     1
    867    871     1
    867    889     1
    866    890     1
    865    870     1
    862    867     1
    862    868     1
    923    926     1
    923    925     1
    921    923     1
    921    924     1
    921    927     1
    920    925     1
    916    917     1
    915    917     1
    912    914     1
    912    917     1
    911    915     1
    911    916     1
    910    918     1
    910    912     1
    910    913     1
    908    923     1
    908    912     1
    907    909     1
    907    918     1
    907    920     1
    907    923     1
    907    924     1
    906    910     1
    906    921     1
    906    925     1
    905    921     1
    905    923     1
    904    906     1
    904    921     1
    904    922     1
    904    926     1
    903    907     1
    903    923     1
    902    904     1
    902    905     1
    902    920     1
    901    904     1
    901    905     1
    901    920     1
    900    921     1
    899    904     1
    896    901     1
    896    902     1
    956    959     1
    956    958     1
    954    956     1
    954    957     1
    954    960     1
    953    958     1
    950    952     1
    947    948     1
    946    948     1
    944    950     1
    943    946     1
    943    947     1
    941    952     1
    941    943     1
    939    956     1
    938    940     1
    938    952     1
    938    953     1
    938    956     1
    938    957     1
    937    941     1
    937    954     1
    937    958     1
    936    954     1
    936    956     1
    935    937     1
    935    954     1
    935    955     1
    935    959     1
    934    938     1
    934    956     1
    933    935     1
    933    936     1
    933    953     1
    932    935     1
    932    936     1
    932    953     1
    931    954     1
    930    935     1
    927    932     1
    927    933     1
    990    993     1
    990    992     1
    988    990     1
    988    991     1
    988    994     1
    987    992     1
    984    985     1
    983    985     1
    980    982     1
    980    985     1
    979    983     1
    979    984     1
    978    980     1
    976    980     1
    974    986     1
    974    976     1
    972    990     1
    971    973     1
    971    986     1
    971    987     1
    971    990     1
    971    991     1
    970    974     1
    970    988     1
    970    992     1
    969    988     1
    969    990     1
    968    970     1
    968    988     1
    968    989     1
    968    993     1
    967    971     1
    967    990     1
    966    968     1
    966    969     1
    966    987     1
    965    968     1
    965    969     1
    965    987     1
    964    988     1
    963    968     1
    960    965     1
    960    966     1
   1021   1024     1
   1021   1023     1
   1019   1021     1
   1019   1022     1
   1019   1025     1
   1018   1023     1
   1014   1015     1
   1013   1015     1
   1010   1012     1
   1010   1015     1
   1009   1013     1
   1009   1014     1
   1008   1016     1
   1008   1010     1
   1008   1011     1
   1006   1021     1
   1006   1010     1
   1005   1007     1
   1005   1016     1
   1005   1018     1
   1005   1021     1
   1005   1022     1
   1004   1008     1
   1004   1019     1
   1004   1023     1
   1003   1019     1
   1003   1021     1
   1002   1004     1
   1002   1019     1
   1002   1020     1
   1002   1024     1
   1001   1005     1
   1001   1021     1
   1000   1002     1
   1000   1003     1
   1000   1018     1
    999   1002     1
    999   1003     1
    999   1018     1
    998   1019     1
    997   1002     1
    994    999     1
    994   1000     1
   1052   1055     1
   1052   1054     1
   1050   1052     1
   1050   1053     1
   1050   1056     1
   1049   1054     1
   1045   1046     1
   1044   1046     1
   1041   1043     1
   1041   1046     1
   1040   1044     1
   1040   1045     1
   1039   1047     1
   1039   1041     1
   1039   1042     1
   1037   1052     1
   1037   1041     1
   1036   1038     1
   1036   1047     1
   1036   1049     1
   1036   1052     1
   1036   1053     1
   1035   1039     1
   1035   1050     1
   1035   1054     1
   1034   1050     1
   1034   1052     1
   1033   1035     1
   1033   1050     1
   1033   1051     1
   1033   1055     1
   1032   1036     1
   1032   1052     1
   1031   1033     1
   1031   1034     1
   1031   1049     1
   1030   1033     1
   1030   1034     1
   1030   1049     1
   1029   1050     1
   1028   1033     1
   1025   1030     1
   1025   1031     1
   1083   1086     1
   1083   1085     1
   1081   1083     1
   1081   1084     1
   1081   1087     1
   1080   1085     1
   1076   1077     1
   1075   1077     1
   1072   1074     1
   1072   1077     1
   1071   1075     1
   1071   1076     1
   1070   1078     1
   1070   1072     1
   1070   1073     1
   1068   1083     1
   1068   1072     1
   1067   1069     1
   1067   1078     1
   1067   1080     1
   1067   1083     1
   1067   1084     1
   1066   1070     1
   1066   1081     1
   1066   1085     1
   1065   1081     1
   1065   1083     1
   1064   1066     1
   1064   1081     1
   1064   1082     1
   1064   1086     1
   1063   1067     1
   1063   1083     1
   1062   1064     1
   1062   1065     1
   1062   1080     1
   1061   1064     1
   1061   1065     1
   1061   1080     1
   1060   1081     1
   1059   1064     1
   1056   1061     1
   1056   1062     1
   1117   1120     1
   1117   1119     1
   1115   1117     1
   1115   1118     1
   1115   1121     1
   1114   1119     1
   1111   1112     1
   1110   1112     1
   1107   1109     1
   1107   1112     1
   1106   1110     1
   1106   1111     1
   1105   1107     1
   1103   1107     1
   1101   1113     1
   1101   1103     1
   1099   1117     1
   1098   1100     1
   1098   1113     1
   1098   1114     1
   1098   1117     1
   1098   1118     1
   1097   1101     1
   1097   1115     1
   1097   1119     1
   1096   1115     1
   1096   1117     1
   1095   1097     1
   1095   1115     1
   1095   1116     1
   1095   1120     1
   1094   1098     1
   1094   1117     1
   1093   1095     1
   1093   1096     1
   1093   1114     1
   1092   1095     1
   1092   1096     1
   1092   1114     1
   1091   1115     1
   1090   1095     1
   1087   1092     1
   1087   1093     1
   1147   1150     1
   1147   1149     1
   1145   1147     1
   1145   1148     1
   1145   1151     1
   1144   1149     1
   1141   1143     1
   1139   1141     1
   1137   1139     1
   1137   1140     1
   1136   1141     1
   1135   1142     1
   1135   1137     1
   1135   1138     1
   1133   1147     1
   1133   1137     1
   1133   1141     1
   1132   1134     1
   1132   1142     1
   1132   1144     1
   1132   1147     1
   1132   1148     1
   1131   1135     1
   1131   1145     1
   1131   1149     1
   1130   1145     1
   1130   1147     1
   1129   1131     1
   1129   1145     1
   1129   1146     1
   1129   1150     1
   1128   1132     1
   1128   1147     1
   1127   1129     1
   1127   1130     1
   1127   1144     1
   1126   1129     1
   1126   1130     1
   1126   1144     1
   1125   1145     1
   1124   1129     1
   1121   1126     1
   1121   1127     1
   1178   1181     1
   1178   1180     1
   1176   1178     1
   1176   1179     1
   1176   1182     1
   1175   1180     1
   1171   1172     1
   1170   1172     1
   1167   1169     1
   1167   1172     1
   1166   1170     1
   1166   1171     1
   1165   1173     1
   1165   1167     1
   1165   1168     1
   1163   1178     1
   1163   1167     1
   1162   1164     1
   1162   1173     1
   1162   1175     1
   1162   1178     1
   1162   1179     1
   1161   1165     1
   1161   1176     1
   1161   1180     1
   1160   1176     1
   1160   1178     1
   1159   1161     1
   1159   1176     1
   1159   1177     1
   1159   1181     1
   1158   1162     1
   1158   1178     1
   1157   1159     1
   1157   1160     1
   1157   1175     1
   1156   1159     1
   1156   1160     1
   1156   1175     1
   1155   1176     1
   1154   1159     1
   1151   1156     1
   1151   1157     1
   1208   1211     1
   1208   1210     1
   1206   1208     1
   1206   1209     1
   1206   1212     1
   1205   1210     1
   1202   1204     1
   1200   1202     1
   1198   1200     1
   1198   1201     1
   1197   1202     1
   1196   1203     1
   1196   1198     1
   1196   1199     1
   1194   1208     1
   1194   1198     1
   1194   1202     1
   1193   1195     1
   1193   1203     1
   1193   1205     1
   1193   1208     1
   1193   1209     1
   1192   1196     1
   1192   1206     1
   1192   1210     1
   1191   1206     1
   1191   1208     1
   1190   1192     1
   1190   1206     1
   1190   1207     1
   1190   1211     1
   1189   1193     1
   1189   1208     1
   1188   1190     1
   1188   1191     1
   1188   1205     1
   1187   1190     1
   1187   1191     1
   1187   1205     1
   1186   1206     1
   1185   1190     1
   1182   1187     1
   1182   1188     1
   1238   1241     1
   1238   1240     1
   1236   1238     1
   1236   1239     1
   1236   1242     1
   1235   1240     1
   1232   1234     1
   1230   1232     1
   1228   1230     1
   1228   1231     1
   1227   1232     1
   1226   1233     1
   1226   1228     1
   1226   1229     1
   1224   1238     1
   1224   1228     1
   1224   1232     1
   1223   1225     1
   1223   1233     1
   1223   1235     1
   1223   1238     1
   1223   1239     1
   1222   1226     1
   1222   1236     1
   1222   1240     1
   1221   1236     1
   1221   1238     1
   1220   1222     1
   1220   1236     1
   1220   1237     1
   1220   1241     1
   1219   1223     1
   1219   1238     1
   1218   1220     1
   1218   1221     1
   1218   1235     1
   1217   1220     1
   1217   1221     1
   1217   1235     1
   1216   1236     1
   1215   1220     1
   1212   1217     1
   1212   1218     1
   1271   1274     1
   1271   1273     1
   1269   1271     1
   1269   1272     1
   1269   1275     1
   1268   1273     1
   1265   1267     1
   1262   1263     1
   1261   1263     1
   1259   1265     1
   1258   1261     1
   1258   1262     1
   1256   1267     1
   1256   1258     1
   1254   1271     1
   1253   1255     1
   1253   1267     1
   1253   1268     1
   1253   1271     1
   1253   1272     1
   1252   1256     1
   1252   1269     1
   1252   1273     1
   1251   1269     1
   1251   1271     1
   1250   1252     1
   1250   1269     1
   1250   1270     1
   1250   1274     1
   1249   1253     1
   1249   1271     1
   1248   1250     1
   1248   1251     1
   1248   1268     1
   1247   1250     1
   1247   1251     1
   1247   1268     1
   1246   1269     1
   1245   1250     1
   1242   1247     1
   1242   1248     1
   1302   1305     1
   1302   1304     1
   1300   1302     1
   1300   1303     1
   1300   1306     1
   1299   1304     1
   1295   1296     1
   1294   1296     1
   1291   1293     1
   1291   1296     1
   1290   1294     1
   1290   1295     1
   1289   1297     1
   1289   1291     1
   1289   1292     1
   1287   1302     1
   1287   1291     1
   1286   1288     1
   1286   1297     1
   1286   1299     1
   1286   1302     1
   1286   1303     1
   1285   1289     1
   1285   1300     1
   1285   1304     1
   1284   1300     1
   1284   1302     1
   1283   1285     1
   1283   1300     1
   1283   1301     1
   1283   1305     1
   1282   1286     1
   1282   1302     1
   1281   1283     1
   1281   1284     1
   1281   1299     1
   1280   1283     1
   1280   1284     1
   1280   1299     1
   1279   1300     1
   1278   1283     1
   1275   1280     1
   1275   1281     1
   1335   1338     1
   1335   1337     1
   1333   1335     1
   1333   1336     1
   1333   1339     1
   1332   1337     1
   1329   1331     1
   1326   1327     1
   1325   1327     1
   1323   1329     1
   1322   1325     1
   1322   1326     1
   1320   1331     1
   1320   1322     1
   1318   1335     1
   1317   1319     1
   1317   1331     1
   1317   1332     1
   1317   1335     1
   1317   1336     1
   1316   1320     1
   1316   1333     1
   1316   1337     1
   1315   1333     1
   1315   1335     1
   1314   1316     1
   1314   1333     1
   1314   1334     1
   1314   1338     1
   1313   1317     1
   1313   1335     1
   1312   1314     1
   1312   1315     1
   1312   1332     1
   1311   1314     1
   1311   1315     1
   1311   1332     1
   1310   1333     1
   1309   1314     1
   1306   1311     1
   1306   1312     1
   1366   1369     1
   1366   1368     1
   1364   1366     1
   1364   1367     1
   1364   1370     1
   1363   1368     1
   1359   1360     1
   1358   1360     1
   1355   1357     1
   1355   1360     1
   1354   1358     1
   1354   1359     1
   1353   1361     1
   1353   1355     1
   1353   1356     1
   1351   1366     1
   1351   1355     1
   1350   1352     1
   1350   1361     1
   1350   1363     1
   1350   1366     1
   1350   1367     1
   1349   1353     1
   1349   1364     1
   1349   1368     1
   1348   1364     1
   1348   1366     1
   1347   1349     1
   1347   1364     1
   1347   1365     1
   1347   1369     1
   1346   1350     1
   1346   1366     1
   1345   1347     1
   1345   1348     1
   1345   1363     1
   1344   1347     1
   1344   1348     1
   1344   1363     1
   1343   1364     1
   1342   1347     1
   1339   1344     1
   1339   1345     1
   1397   1400     1
   1397   1399     1
   1395   1397     1
   1395   1398     1
   1395   1401     1
   1394   1399     1
   1390   1391     1
   1389   1391     1
   1386   1388     1
   1386   1391     1
   1385   1389     1
   1385   1390     1
   1384   1392     1
   1384   1386     1
   1384   1387     1
   1382   1397     1
   1382   1386     1
   1381   1383     1
   1381   1392     1
   1381   1394     1
   1381   1397     1
   1381   1398     1
   1380   1384     1
   1380   1395     1
   1380   1399     1
   1379   1395     1
   1379   1397     1
   1378   1380     1
   1378   1395     1
   1378   1396     1
   1378   1400     1
   1377   1381     1
   1377   1397     1
   1376   1378     1
   1376   1379     1
   1376   1394     1
   1375   1378     1
   1375   1379     1
   1375   1394     1
   1374   1395     1
   1373   1378     1
   1370   1375     1
   1370   1376     1
   1431   1434     1
   1431   1433     1
   1429   1431     1
   1429   1432     1
   1429   1435     1
   1428   1433     1
   1425   1426     1
   1424   1426     1
   1421   1423     1
   1421   1426     1
   1420   1424     1
   1420   1425     1
   1419   1421     1
   1417   1421     1
   1415   1427     1
   1415   1417     1
   1413   1431     1
   1412   1414     1
   1412   1427     1
   1412   1428     1
   1412   1431     1
   1412   1432     1
   1411   1415     1
   1411   1429     1
   1411   1433     1
   1410   1429     1
   1410   1431     1
   1409   1411     1
   1409   1429     1
   1409   1430     1
   1409   1434     1
   1408   1412     1
   1408   1431     1
   1407   1409     1
   1407   1410     1
   1407   1428     1
   1406   1409     1
   1406   1410     1
   1406   1428     1
   1405   1429     1
   1404   1409     1
   1401   1406     1
   1401   1407     1
   1461   1464     1
   1461   1463     1
   1459   1461     1
   1459   1462     1
   1459   1465     1
   1458   1463     1
   1455   1457     1
   1453   1455     1
   1451   1453     1
   1451   1454     1
   1450   1455     1
   1449   1456     1
   1449   1451     1
   1449   1452     1
   1447   1461     1
   1447   1451     1
   1447   1455     1
   1446   1448     1
   1446   1456     1
   1446   1458     1
   1446   1461     1
   1446   1462     1
   1445   1449     1
   1445   1459     1
   1445   1463     1
   1444   1459     1
   1444   1461     1
   1443   1445     1
   1443   1459     1
   1443   1460     1
   1443   1464     1
   1442   1446     1
   1442   1461     1
   1441   1443     1
   1441   1444     1
   1441   1458     1
   1440   1443     1
   1440   1444     1
   1440   1458     1
   1439   1459     1
   1438   1443     1
   1435   1440     1
   1435   1441     1
   1495   1498     1
   1495   1497     1
   1493   1495     1
   1493   1496     1
   1493   1499     1
   1492   1497     1
   1489   1490     1
   1488   1490     1
   1485   1487     1
   1485   1490     1
   1484   1488     1
   1484   1489     1
   1483   1485     1
   1481   1485     1
   1479   1491     1
   1479   1481     1
   1477   1495     1
   1476   1478     1
   1476   1491     1
   1476   1492     1
   1476   1495     1
   1476   1496     1
   1475   1479     1
   1475   1493     1
   1475   1497     1
   1474   1493     1
   1474   1495     1
   1473   1475     1
   1473   1493     1
   1473   1494     1
   1473   1498     1
   1472   1476     1
   1472   1495     1
   1471   1473     1
   1471   1474     1
   1471   1492     1
   1470   1473     1
   1470   1474     1
   1470   1492     1
   1469   1493     1
   1468   1473     1
   1465   1470     1
   1465   1471     1
   1526   1529     1
   1526   1528     1
   1524   1526     1
   1524   1527     1
   1524   1530     1
   1523   1528     1
   1519   1520     1
   1518   1520     1
   1515   1517     1
   1515   1520     1
   1514   1518     1
   1514   1519     1
   1513   1521     1
   1513   1515     1
   1513   1516     1
   1511   1526     1
   1511   1515     1
   1510   1512     1
   1510   1521     1
   1510   1523     1
   1510   1526     1
   1510   1527     1
   1509   1513     1
   1509   1524     1
   1509   1528     1
   1508   1524     1
   1508   1526     1
   1507   1509     1
   1507   1524     1
   1507   1525     1
   1507   1529     1
   1506   1510     1
   1506   1526     1
   1505   1507     1
   1505   1508     1
   1505   1523     1
   1504   1507     1
   1504   1508     1
   1504   1523     1
   1503   1524     1
   1502   1507     1
   1499   1504     1
   1499   1505     1
   1560   1563     1
   1560   1562     1
   1558   1560     1
   1558   1561     1
   1558   1564     1
   1557   1562     1
   1554   1555     1
   1553   1555     1
   1550   1552     1
   1550   1555     1
   1549   1553     1
   1549   1554     1
   1548   1550     1
   1546   1550     1
   1544   1556     1
   1544   1546     1
   1542   1560     1
   1541   1543     1
   1541   1556     1
   1541   1557     1
   1541   1560     1
   1541   1561     1
   1540   1544     1
   1540   1558     1
   1540   1562     1
   1539   1558     1
   1539   1560     1
   1538   1540     1
   1538   1558     1
   1538   1559     1
   1538   1563     1
   1537   1541     1
   1537   1560     1
   1536   1538     1
   1536   1539     1
   1536   1557     1
   1535   1538     1
   1535   1539     1
   1535   1557     1
   1534   1558     1
   1533   1538     1
   1530   1535     1
   1530   1536     1
   1594   1597     1
   1594   1596     1
   1592   1594     1
   1592   1595     1
   1592   1598     1
   1591   1596     1
   1588   1589     1
   1587   1589     1
   1584   1586     1
   1584   1589     1
   1583   1587     1
   1583   1588     1
   1582   1584     1
   1580   1584     1
   1578   1590     1
   1578   1580     1
   1576   1594     1
   1575   1577     1
   1575   1590     1
   1575   1591     1
   1575   1594     1
   1575   1595     1
   1574   1578     1
   1574   1592     1
   1574   1596     1
   1573   1592     1
   1573   1594     1
   1572   1574     1
   1572   1592     1
   1572   1593     1
   1572   1597     1
   1571   1575     1
   1571   1594     1
   1570   1572     1
   1570   1573     1
   1570   1591     1
   1569   1572     1
   1569   1573     1
   1569   1591     1
   1568   1592     1
   1567   1572     1
   1564   1569     1
   1564   1570     1
   1625   1628     1
   1625   1627     1
   1623   1625     1
   1623   1626     1
   1623   1629     1
   1622   1627     1
   1618   1619     1
   1617   1619     1
   1614   1616     1
   1614   1619     1
   1613   1617     1
   1613   1618     1
   1612   1620     1
   1612   1614     1
   1612   1615     1
   1610   1625     1
   1610   1614     1
   1609   1611     1
   1609   1620     1
   1609   1622     1
   1609   1625     1
   1609   1626     1
   1608   1612     1
   1608   1623     1
   1608   1627     1
   1607   1623     1
   1607   1625     1
   1606   1608     1
   1606   1623     1
   1606   1624     1
   1606   1628     1
   1605   1609     1
   1605   1625     1
   1604   1606     1
   1604   1607     1
   1604   1622     1
   1603   1606     1
   1603   1607     1
   1603   1622     1
   1602   1623     1
   1601   1606     1
   1598   1603     1
   1598   1604     1
   1658   1661     1
   1658   1660     1
   1656   1658     1
   1656   1659     1
   1656   1662     1
   1655   1660     1
   1652   1654     1
   1649   1650     1
   1648   1650     1
   1646   1652     1
   1645   1648     1
   1645   1649     1
   1643   1654     1
   1643   1645     1
   1641   1658     1
   1640   1642     1
   1640   1654     1
   1640   1655     1
   1640   1658     1
   1640   1659     1
   1639   1643     1
   1639   1656     1
   1639   1660     1
   1638   1656     1
   1638   1658     1
   1637   1639     1
   1637   1656     1
   1637   1657     1
   1637   1661     1
   1636   1640     1
   1636   1658     1
   1635   1637     1
   1635   1638     1
   1635   1655     1
   1634   1637     1
   1634   1638     1
   1634   1655     1
   1633   1656     1
   1632   1637     1
   1629   1634     1
   1629   1635     1
   1689   1692     1
   1689   1691     1
   1687   1689     1
   1687   1690     1
   1687   1693     1
   1686   1691     1
   1682   1683     1
   1681   1683     1
   1678   1680     1
   1678   1683     1
   1677   1681     1
   1677   1682     1
   1676   1684     1
   1676   1678     1
   1676   1679     1
   1674   1689     1
   1674   1678     1
   1673   1675     1
   1673   1684     1
   1673   1686     1
   1673   1689     1
   1673   1690     1
   1672   1676     1
   1672   1687     1
   1672   1691     1
   1671   1687     1
   1671   1689     1
   1670   1672     1
   1670   1687     1
   1670   1688     1
   1670   1692     1
   1669   1673     1
   1669   1689     1
   1668   1670     1
   1668   1671     1
   1668   1686     1
   1667   1670     1
   1667   1671     1
   1667   1686     1
   1666   1687     1
   1665   1670     1
   1662   1667     1
   1662   1668     1
   1722   1725     1
   1722   1724     1
   1720   1722     1
   1720   1723     1
   1720   1726     1
   1719   1724     1
   1716   1718     1
   1713   1714     1
   1712   1714     1
   1710   1716     1
   1709   1712     1
   1709   1713     1
   1707   1718     1
   1707   1709     1
   1705   1722     1
   1704   1706     1
   1704   1718     1
   1704   1719     1
   1704   1722     1
   1704   1723     1
   1703   1707     1
   1703   1720     1
   1703   1724     1
   1702   1720     1
   1702   1722     1
   1701   1703     1
   1701   1720     1
   1701   1721     1
   1701   1725     1
   1700   1704     1
   1700   1722     1
   1699   1701     1
   1699   1702     1
   1699   1719     1
   1698   1701     1
   1698   1702     1
   1698   1719     1
   1697   1720     1
   1696   1701     1
   1693   1698     1
   1693   1699     1
   1756   1759     1
   1756   1758     1
   1754   1756     1
   1754   1757     1
   1754   1760     1
   1753   1758     1
   1750   1751     1
   1749   1751     1
   1746   1748     1
   1746   1751     1
   1745   1749     1
   1745   1750     1
   1744   1746     1
   1742   1746     1
   1740   1752     1
   1740   1742     1
   1738   1756     1
   1737   1739     1
   1737   1752     1
   1737   1753     1
   1737   1756     1
   1737   1757     1
   1736   1740     1
   1736   1754     1
   1736   1758     1
   1735   1754     1
   1735   1756     1
   1734   1736     1
   1734   1754     1
   1734   1755     1
   1734   1759     1
   1733   1737     1
   1733   1756     1
   1732   1734     1
   1732   1735     1
   1732   1753     1
   1731   1734     1
   1731   1735     1
   1731   1753     1
   1730   1754     1
   1729   1734     1
   1726   1731     1
   1726   1732     1
   1790   1793     1
   1790   1792     1
   1788   1790     1
   1788   1791     1
   1788   1794     1
   1787   1792     1
   1784   1785     1
   1783   1785     1
   1780   1782     1
   1780   1785     1
   1779   1783     1
   1779   1784     1
   1778   1780     1
   1776   1780     1
   1774   1786     1
   1774   1776     1
   1772   1790     1
   1771   1773     1
   1771   1786     1
   1771   1787     1
   1771   1790     1
   1771   1791     1
   1770   1774     1
   1770   1788     1
   1770   1792     1
   1769   1788     1
   1769   1790     1
   1768   1770     1
   1768   1788     1
   1768   1789     1
   1768   1793     1
   1767   1771     1
   1767   1790     1
   1766   1768     1
   1766   1769     1
   1766   1787     1
   1765   1768     1
   1765   1769     1
   1765   1787     1
   1764   1788     1
   1763   1768     1
   1760   1765     1
   1760   1766     1
   1821   1824     1
   1821   1823     1
   1819   1821     1
   1819   1822     1
   1819   1825     1
   1818   1823     1
   1814   1815     1
   1813   1815     1
   1810   1812     1
   1810   1815     1
   1809   1813     1
   1809   1814     1
   1808   1816     1
   1808   1810     1
   1808   1811     1
   1806   1821     1
   1806   1810     1
   1805   1807     1
   1805   1816     1
   1805   1818     1
   1805   1821     1
   1805   1822     1
   1804   1808     1
   1804   1819     1
   1804   1823     1
   1803   1819     1
   1803   1821     1
   1802   1804     1
   1802   1819     1
   1802   1820     1
   1802   1824     1
   1801   1805     1
   1801   1821     1
   1800   1802     1
   1800   1803     1
   1800   1818     1
   1799   1802     1
   1799   1803     1
   1799   1818     1
   1798   1819     1
   1797   1802     1
   1794   1799     1
   1794   1800     1
   1854   1857     1
   1854   1856     1
   1852   1854     1
   1852   1855     1
   1852   1858     1
   1851   1856     1
   1848   1850     1
   1845   1846     1
   1844   1846     1
   1842   1848     1
   1841   1844     1
   1841   1845     1
   1839   1850     1
   1839   1841     1
   1837   1854     1
   1836   1838     1
   1836   1850     1
   1836   1851     1
   1836   1854     1
   1836   1855     1
   1835   1839     1
   1835   1852     1
   1835   1856     1
   1834   1852     1
   1834   1854     1
   1833   1835     1
   1833   1852     1
   1833   1853     1
   1833   1857     1
   1832   1836     1
   1832   1854     1
   1831   1833     1
   1831   1834     1
   1831   1851     1
   1830   1833     1
   1830   1834     1
   1830   1851     1
   1829   1852     1
   1828   1833     1
   1825   1830     1
   1825   1831     1
   1885   1888     1
   1885   1887     1
   1883   1885     1
   1883   1886     1
   1883   1889     1
   1882   1887     1
   1878   1879     1
   1877   1879     1
   1874   1876     1
   1874   1879     1
   1873   1877     1
   1873   1878     1
   1872   1880     1
   1872   1874     1
   1872   1875     1
   1870   1885     1
   1870   1874     1
   1869   1871     1
   1869   1880     1
   1869   1882     1
   1869   1885     1
   1869   1886     1
   1868   1872     1
   1868   1883     1
   1868   1887     1
   1867   1883     1
   1867   1885     1
   1866   1868     1
   1866   1883     1
   1866   1884     1
   1866   1888     1
   1865   1869     1
   1865   1885     1
   1864   1866     1
   1864   1867     1
   1864   1882     1
   1863   1866     1
   1863   1867     1
   1863   1882     1
   1862   1883     1
   1861   1866     1
   1858   1863     1
   1858   1864     1
   1915   1918     1
   1915   1917     1
   1913   1915     1
   1913   1916     1
   1913   1919     1
   1912   1917     1
   1909   1911     1
   1907   1909     1
   1905   1907     1
   1905   1908     1
   1904   1909     1
   1903   1910     1
   1903   1905     1
   1903   1906     1
   1901   1915     1
   1901   1905     1
   1901   1909     1
   1900   1902     1
   1900   1910     1
   1900   1912     1
   1900   1915     1
   1900   1916     1
   1899   1903     1
   1899   1913     1
   1899   1917     1
   1898   1913     1
   1898   1915     1
   1897   1899     1
   1897   1913     1
   1897   1914     1
   1897   1918     1
   1896   1900     1
   1896   1915     1
   1895   1897     1
   1895   1898     1
   1895   1912     1
   1894   1897     1
   1894   1898     1
   1894   1912     1
   1893   1913     1
   1892   1897     1
   1889   1894     1
   1889   1895     1
   1948   1951     1
   1948   1950     1
   1946   1948     1
   1946   1949     1
   1946   1952     1
   1945   1950     1
   1942   1944     1
   1939   1940     1
   1938   1940     1
   1936   1942     1
   1935   1938     1
   1935   1939     1
   1933   1944     1
   1933   1935     1
   1931   1948     1
   1930   1932     1
   1930   1944     1
   1930   1945     1
   1930   1948     1
   1930   1949     1
   1929   1933     1
   1929   1946     1
   1929   1950     1
   1928   1946     1
   1928   1948     1
   1927   1929     1
   1927   1946     1
   1927   1947     1
   1927   1951     1
   1926   1930     1
   1926   1948     1
   1925   1927     1
   1925   1928     1
   1925   1945     1
   1924   1927     1
   1924   1928     1
   1924   1945     1
   1923   1946     1
   1922   1927     1
   1919   1924     1
   1919   1925     1
   1982   1985     1
   1982   1984     1
   1980   1982     1
   1980   1983     1
   1980   1986     1
   1979   1984     1
   1976   1977     1
   1975   1977     1
   1972   1974     1
   1972   1977     1
   1971   1975     1
   1971   1976     1
   1970   1972     1
   1968   1972     1
   1966   1978     1
   1966   1968     1
   1964   1982     1
   1963   1965     1
   1963   1978     1
   1963   1979     1
   1963   1982     1
   1963   1983     1
   1962   1966     1
   1962   1980     1
   1962   1984     1
   1961   1980     1
   1961   1982     1
   1960   1962     1
   1960   1980     1
   1960   1981     1
   1960   1985     1
   1959   1963     1
   1959   1982     1
   1958   1960     1
   1958   1961     1
   1958   1979     1
   1957   1960     1
   1957   1961     1
   1957   1979     1
   1956   1980     1
   1955   1960     1
   1952   1957     1
   1952   1958     1
   2012   2015     1
   2012   2014     1
   2010   2012     1
   2010   2013     1
   2010   2016     1
   2009   2014     1
   2006   2008     1
   2004   2006     1
   2002   2004     1
   2002   2005     1
   2001   2006     1
   2000   2007     1
   2000   2002     1
   2000   2003     1
   1998   2012     1
   1998   2002     1
   1998   2006     1
   1997   1999     1
   1997   2007     1
   1997   2009     1
   1997   2012     1
   1997   2013     1
   1996   2000     1
   1996   2010     1
   1996   2014     1
   1995   2010     1
   1995   2012     1
   1994   1996     1
   1994   2010     1
   1994   2011     1
   1994   2015     1
   1993   1997     1
   1993   2012     1
   1992   1994     1
   1992   1995     1
   1992   2009     1
   1991   1994     1
   1991   1995     1
   1991   2009     1
   1990   2010     1
   1989   1994     1
   1986   1991     1
   1986   1992     1
   2045   2048     1
   2045   2047     1
   2043   2045     1
   2043   2046     1
   2043   2049     1
   2042   2047     1
   2039   2041     1
   2036   2037     1
   2035   2037     1
   2033   2039     1
   2032   2035     1
   2032   2036     1
   2030   2041     1
   2030   2032     1
   2028   2045     1
   2027   2029     1
   2027   2041     1
   2027   2042     1
   2027   2045     1
   2027   2046     1
   2026   2030     1
   2026   2043     1
   2026   2047     1
   2025   2043     1
   2025   2045     1
   2024   2026     1
   2024   2043     1
   2024   2044     1
   2024   2048     1
   2023   2027     1
   2023   2045     1
   2022   2024     1
   2022   2025     1
   2022   2042     1
   2021   2024     1
   2021   2025     1
   2021   2042     1
   2020   2043     1
   2019   2024     1
   2016   2021     1
   2016   2022     1
   2076   2079     1
   2076   2078     1
   2074   2076     1
   2074   2077     1
   2074   2080     1
   2073   2078     1
   2069   2070     1
   2068   2070     1
   2065   2067     1
   2065   2070     1
   2064   2068     1
   2064   2069     1
   2063   2071     1
   2063   2065     1
   2063   2066     1
   2061   2076     1
   2061   2065     1
   2060   2062     1
   2060   2071     1
   2060   2073     1
   2060   2076     1
   2060   2077     1
   2059   2063     1
   2059   2074     1
   2059   2078     1
   2058   2074     1
   2058   2076     1
   2057   2059     1
   2057   2074     1
   2057   2075     1
   2057   2079     1
   2056   2060     1
   2056   2076     1
   2055   2057     1
   2055   2058     1
   2055   2073     1
   2054   2057     1
   2054   2058     1
   2054   2073     1
   2053   2074     1
   2052   2057     1
   2049   2054     1
   2049   2055     1
   2106   2109     1
   2106   2108     1
   2104   2106     1
   2104   2107     1
   2104   2110     1
   2103   2108     1
   2100   2102     1
   2098   2100     1
   2096   2098     1
   2096   2099     1
   2095   2100     1
   2094   2101     1
   2094   2096     1
   2094   2097     1
   2092   2106     1
   2092   2096     1
   2092   2100     1
   2091   2093     1
   2091   2101     1
   2091   2103     1
   2091   2106     1
   2091   2107     1
   2090   2094     1
   2090   2104     1
   2090   2108     1
   2089   2104     1
   2089   2106     1
   2088   2090     1
   2088   2104     1
   2088   2105     1
   2088   2109     1
   2087   2091     1
   2087   2106     1
   2086   2088     1
   2086   2089     1
   2086   2103     1
   2085   2088     1
   2085   2089     1
   2085   2103     1
   2084   2104     1
   2083   2088     1
   2080   2085     1
   2080   2086     1
   2140   2143     1
   2140   2142     1
   2138   2140     1
   2138   2141     1
   2138   2144     1
   2137   2142     1
   2134   2135     1
   2133   2135     1
   2130   2132     1
   2130   2135     1
   2129   2133     1
   2129   2134     1
   2128   2130     1
   2126   2130     1
   2124   2136     1
   2124   2126     1
   2122   2140     1
   2121   2123     1
   2121   2136     1
   2121   2137     1
   2121   2140     1
   2121   2141     1
   2120   2124     1
   2120   2138     1
   2120   2142     1
   2119   2138     1
   2119   2140     1
   2118   2120     1
   2118   2138     1
   2118   2139     1
   2118   2143     1
   2117   2121     1
   2117   2140     1
   2116   2118     1
   2116   2119     1
   2116   2137     1
   2115   2118     1
   2115   2119     1
   2115   2137     1
   2114   2138     1
   2113   2118     1
   2110   2115     1
   2110   2116     1
   2173   2176     1
   2173   2175     1
   2171   2173     1
   2171   2174     1
   2171   2177     1
   2170   2175     1
   2167   2169     1
   2164   2165     1
   2163   2165     1
   2161   2167     1
   2160   2163     1
   2160   2164     1
   2158   2169     1
   2158   2160     1
   2156   2173     1
   2155   2157     1
   2155   2169     1
   2155   2170     1
   2155   2173     1
   2155   2174     1
   2154   2158     1
   2154   2171     1
   2154   2175     1
   2153   2171     1
   2153   2173     1
   2152   2154     1
   2152   2171     1
   2152   2172     1
   2152   2176     1
   2151   2155     1
   2151   2173     1
   2150   2152     1
   2150   2153     1
   2150   2170     1
   2149   2152     1
   2149   2153     1
   2149   2170     1
   2148   2171     1
   2147   2152     1
   2144   2149     1
   2144   2150     1
   2203   2206     1
   2203   2205     1
   2201   2203     1
   2201   2204     1
   2201   2207     1
   2200   2205     1
   2197   2199     1
   2195   2197     1
   2193   2195     1
   2193   2196     1
   2192   2197     1
   2191   2198     1
   2191   2193     1
   2191   2194     1
   2189   2203     1
   2189   2193     1
   2189   2197     1
   2188   2190     1
   2188   2198     1
   2188   2200     1
   2188   2203     1
   2188   2204     1
   2187   2191     1
   2187   2201     1
   2187   2205     1
   2186   2201     1
   2186   2203     1
   2185   2187     1
   2185   2201     1
   2185   2202     1
   2185   2206     1
   2184   2188     1
   2184   2203     1
   2183   2185     1
   2183   2186     1
   2183   2200     1
   2182   2185     1
   2182   2186     1
   2182   2200     1
   2181   2201     1
   2180   2185     1
   2177   2182     1
   2177   2183     1
   2237   2240     1
   2237   2239     1
   2235   2237     1
   2235   2238     1
   2235   2241     1
   2234   2239     1
   2231   2232     1
   2230   2232     1
   2227   2229     1
   2227   2232     1
   2226   2230     1
   2226   2231     1
   2225   2227     1
   2223   2227     1
   2221   2233     1
   2221   2223     1
   2219   2237     1
   2218   2220     1
   2218   2233     1
   2218   2234     1
   2218   2237     1
   2218   2238     1
   2217   2221     1
   2217   2235     1
   2217   2239     1
   2216   2235     1
   2216   2237     1
   2215   2217     1
   2215   2235     1
   2215   2236     1
   2215   2240     1
   2214   2218     1
   2214   2237     1
   2213   2215     1
   2213   2216     1
   2213   2234     1
   2212   2215     1
   2212   2216     1
   2212   2234     1
   2211   2235     1
   2210   2215     1
   2207   2212     1
   2207   2213     1
   2267   2270     1
   2267   2269     1
   2265   2267     1
   2265   2268     1
   2265   2271     1
   2264   2269     1
   2261   2263     1
   2259   2261     1
   2257   2259     1
   2257   2260     1
   2256   2261     1
   2255   2262     1
   2255   2257     1
   2255   2258     1
   2253   2267     1
   2253   2257     1
   2253   2261     1
   2252   2254     1
   2252   2262     1
   2252   2264     1
   2252   2267     1
   2252   2268     1
   2251   2255     1
   2251   2265     1
   2251   2269     1
   2250   2265     1
   2250   2267     1
   2249   2251     1
   2249   2265     1
   2249   2266     1
   2249   2270     1
   2248   2252     1
   2248   2267     1
   2247   2249     1
   2247   2250     1
   2247   2264     1
   2246   2249     1
   2246   2250     1
   2246   2264     1
   2245   2265     1
   2244   2249     1
   2241   2246     1
   2241   2247     1
   2298   2301     1
   2298   2300     1
   2296   2298     1
   2296   2299     1
   2296   2302     1
   2295   2300     1
   2291   2292     1
   2290   2292     1
   2287   2289     1
   2287   2292     1
   2286   2290     1
   2286   2291     1
   2285   2293     1
   2285   2287     1
   2285   2288     1
   2283   2298     1
   2283   2287     1
   2282   2284     1
   2282   2293     1
   2282   2295     1
   2282   2298     1
   2282   2299     1
   2281   2285     1
   2281   2296     1
   2281   2300     1
   2280   2296     1
   2280   2298     1
   2279   2281     1
   2279   2296     1
   2279   2297     1
   2279   2301     1
   2278   2282     1
   2278   2298     1
   2277   2279     1
   2277   2280     1
   2277   2295     1
   2276   2279     1
   2276   2280     1
   2276   2295     1
   2275   2296     1
   2274   2279     1
   2271   2276     1
   2271   2277     1
   2332   2335     1
   2332   2334     1
   2330   2332     1
   2330   2333     1
   2330   2336     1
   2329   2334     1
   2326   2327     1
   2325   2327     1
   2322   2324     1
   2322   2327     1
   2321   2325     1
   2321   2326     1
   2320   2322     1
   2318   2322     1
   2316   2328     1
   2316   2318     1
   2314   2332     1
   2313   2315     1
   2313   2328     1
   2313   2329     1
   2313   2332     1
   2313   2333     1
   2312   2316     1
   2312   2330     1
   2312   2334     1
   2311   2330     1
   2311   2332     1
   2310   2312     1
   2310   2330     1
   2310   2331     1
   2310   2335     1
   2309   2313     1
   2309   2332     1
   2308   2310     1
   2308   2311     1
   2308   2329     1
   2307   2310     1
   2307   2311     1
   2307   2329     1
   2306   2330     1
   2305   2310     1
   2302   2307     1
   2302   2308     1
   2362   2365     1
   2362   2364     1
   2360   2362     1
   2360   2363     1
   2360   2366     1
   2359   2364     1
   2356   2358     1
   2354   2356     1
   2352   2354     1
   2352   2355     1
   2351   2356     1
   2350   2357     1
   2350   2352     1
   2350   2353     1
   2348   2362     1
   2348   2352     1
   2348   2356     1
   2347   2349     1
   2347   2357     1
   2347   2359     1
   2347   2362     1
   2347   2363     1
   2346   2350     1
   2346   2360     1
   2346   2364     1
   2345   2360     1
   2345   2362     1
   2344   2346     1
   2344   2360     1
   2344   2361     1
   2344   2365     1
   2343   2347     1
   2343   2362     1
   2342   2344     1
   2342   2345     1
   2342   2359     1
   2341   2344     1
   2341   2345     1
   2341   2359     1
   2340   2360     1
   2339   2344     1
   2336   2341     1
   2336   2342     1
   2395   2398     1
   2395   2397     1
   2393   2395     1
   2393   2396     1
   2393   2399     1
   2392   2397     1
   2389   2391     1
   2386   2387     1
   2385   2387     1
   2383   2389     1
   2382   2385     1
   2382   2386     1
   2380   2391     1
   2380   2382     1
   2378   2395     1
   2377   2379     1
   2377   2391     1
   2377   2392     1
   2377   2395     1
   2377   2396     1
   2376   2380     1
   2376   2393     1
   2376   2397     1
   2375   2393     1
   2375   2395     1
   2374   2376     1
   2374   2393     1
   2374   2394     1
   2374   2398     1
   2373   2377     1
   2373   2395     1
   2372   2374     1
   2372   2375     1
   2372   2392     1
   2371   2374     1
   2371   2375     1
   2371   2392     1
   2370   2393     1
   2369   2374     1
   2366   2371     1
   2366   2372     1
   2425   2428     1
   2425   2427     1
   2423   2425     1
   2423   2426     1
   2423   2429     1
   2422   2427     1
   2419   2421     1
   2417   2419     1
   2415   2417     1
   2415   2418     1
   2414   2419     1
   2413   2420     1
   2413   2415     1
   2413   2416     1
   2411   2425     1
   2411   2415     1
   2411   2419     1
   2410   2412     1
   2410   2420     1
   2410   2422     1
   2410   2425     1
   2410   2426     1
   2409   2413     1
   2409   2423     1
   2409   2427     1
   2408   2423     1
   2408   2425     1
   2407   2409     1
   2407   2423     1
   2407   2424     1
   2407   2428     1
   2406   2410     1
   2406   2425     1
   2405   2407     1
   2405   2408     1
   2405   2422     1
   2404   2407     1
   2404   2408     1
   2404   2422     1
   2403   2423     1
   2402   2407     1
   2399   2404     1
   2399   2405     1
   2458   2461     1
   2458   2460     1
   2456   2458     1
   2456   2459     1
   2456   2462     1
   2455   2460     1
   2452   2454     1
   2449   2450     1
   2448   2450     1
   2446   2452     1
   2445   2448     1
   2445   2449     1
   2443   2454     1
   2443   2445     1
   2441   2458     1
   2440   2442     1
   2440   2454     1
   2440   2455     1
   2440   2458     1
   2440   2459     1
   2439   2443     1
   2439   2456     1
   2439   2460     1
   2438   2456     1
   2438   2458     1
   2437   2439     1
   2437   2456     1
   2437   2457     1
   2437   2461     1
   2436   2440     1
   2436   2458     1
   2435   2437     1
   2435   2438     1
   2435   2455     1
   2434   2437     1
   2434   2438     1
   2434   2455     1
   2433   2456     1
   2432   2437     1
   2429   2434     1
   2429   2435     1
   2489   2492     1
   2489   2491     1
   2487   2489     1
   2487   2490     1
   2487   2493     1
   2486   2491     1
   2482   2483     1
   2481   2483     1
   2478   2480     1
   2478   2483     1
   2477   2481     1
   2477   2482     1
   2476   2484     1
   2476   2478     1
   2476   2479     1
   2474   2489     1
   2474   2478     1
   2473   2475     1
   2473   2484     1
   2473   2486     1
   2473   2489     1
   2473   2490     1
   2472   2476     1
   2472   2487     1
   2472   2491     1
   2471   2487     1
   2471   2489     1
   2470   2472     1
   2470   2487     1
   2470   2488     1
   2470   2492     1
   2469   2473     1
   2469   2489     1
   2468   2470     1
   2468   2471     1
   2468   2486     1
   2467   2470     1
   2467   2471     1
   2467   2486     1
   2466   2487     1
   2465   2470     1
   2462   2467     1
   2462   2468     1
   2522   2525     1
   2522   2524     1
   2520   2522     1
   2520   2523     1
   2520   2526     1
   2519   2524     1
   2516   2518     1
   2513   2514     1
   2512   2514     1
   2510   2516     1
   2509   2512     1
   2509   2513     1
   2507   2518     1
   2507   2509     1
   2505   2522     1
   2504   2506     1
   2504   2518     1
   2504   2519     1
   2504   2522     1
   2504   2523     1
   2503   2507     1
   2503   2520     1
   2503   2524     1
   2502   2520     1
   2502   2522     1
   2501   2503     1
   2501   2520     1
   2501   2521     1
   2501   2525     1
   2500   2504     1
   2500   2522     1
   2499   2501     1
   2499   2502     1
   2499   2519     1
   2498   2501     1
   2498   2502     1
   2498   2519     1
   2497   2520     1
   2496   2501     1
   2493   2498     1
   2493   2499     1
   2556   2559     1
   2556   2558     1
   2554   2556     1
   2554   2557     1
   2554   2560     1
   2553   2558     1
   2550   2551     1
   2549   2551     1
   2546   2548     1
   2546   2551     1
   2545   2549     1
   2545   2550     1
   2544   2546     1
   2542   2546     1
   2540   2552     1
   2540   2542     1
   2538   2556     1
   2537   2539     1
   2537   2552     1
   2537   2553     1
   2537   2556     1
   2537   2557     1
   2536   2540     1
   2536   2554     1
   2536   2558     1
   2535   2554     1
   2535   2556     1
   2534   2536     1
   2534   2554     1
   2534   2555     1
   2534   2559     1
   2533   2537     1
   2533   2556     1
   2532   2534     1
   2532   2535     1
   2532   2553     1
   2531   2534     1
   2531   2535     1
   2531   2553     1
   2530   2554     1
   2529   2534     1
   2526   2531     1
   2526   2532     1
   2590   2593     1
   2590   2592     1
   2588   2590     1
   2588   2591     1
   2588   2594     1
   2587   2592     1
   2584   2585     1
   2583   2585     1
   2580   2582     1
   2580   2585     1
   2579   2583     1
   2579   2584     1
   2578   2580     1
   2576   2580     1
   2574   2586     1
   2574   2576     1
   2572   2590     1
   2571   2573     1
   2571   2586     1
   2571   2587     1
   2571   2590     1
   2571   2591     1
   2570   2574     1
   2570   2588     1
   2570   2592     1
   2569   2588     1
   2569   2590     1
   2568   2570     1
   2568   2588     1
   2568   2589     1
   2568   2593     1
   2567   2571     1
   2567   2590     1
   2566   2568     1
   2566   2569     1
   2566   2587     1
   2565   2568     1
   2565   2569     1
   2565   2587     1
   2564   2588     1
   2563   2568     1
   2560   2565     1
   2560   2566     1
   2624   2627     1
   2624   2626     1
   2622   2624     1
   2622   2625     1
   2622   2628     1
   2621   2626     1
   2618   2619     1
   2617   2619     1
   2614   2616     1
   2614   2619     1
   2613   2617     1
   2613   2618     1
   2612   2614     1
   2610   2614     1
   2608   2620     1
   2608   2610     1
   2606   2624     1
   2605   2607     1
   2605   2620     1
   2605   2621     1
   2605   2624     1
   2605   2625     1
   2604   2608     1
   2604   2622     1
   2604   2626     1
   2603   2622     1
   2603   2624     1
   2602   2604     1
   2602   2622     1
   2602   2623     1
   2602   2627     1
   2601   2605     1
   2601   2624     1
   2600   2602     1
   2600   2603     1
   2600   2621     1
   2599   2602     1
   2599   2603     1
   2599   2621     1
   2598   2622     1
   2597   2602     1
   2594   2599     1
   2594   2600     1
   2655   2658     1
   2655   2657     1
   2653   2655     1
   2653   2656     1
   2653   2659     1
   2652   2657     1
   2648   2649     1
   2647   2649     1
   2644   2646     1
   2644   2649     1
   2643   2647     1
   2643   2648     1
   2642   2650     1
   2642   2644     1
   2642   2645     1
   2640   2655     1
   2640   2644     1
   2639   2641     1
   2639   2650     1
   2639   2652     1
   2639   2655     1
   2639   2656     1
   2638   2642     1
   2638   2653     1
   2638   2657     1
   2637   2653     1
   2637   2655     1
   2636   2638     1
   2636   2653     1
   2636   2654     1
   2636   2658     1
   2635   2639     1
   2635   2655     1
   2634   2636     1
   2634   2637     1
   2634   2652     1
   2633   2636     1
   2633   2637     1
   2633   2652     1
   2632   2653     1
   2631   2636     1
   2628   2633     1
   2628   2634     1
   2685   2688     1
   2685   2687     1
   2683   2685     1
   2683   2686     1
   2683   2689     1
   2682   2687     1
   2679   2681     1
   2677   2679     1
   2675   2677     1
   2675   2678     1
   2674   2679     1
   2673   2680     1
   2673   2675     1
   2673   2676     1
   2671   2685     1
   2671   2675     1
   2671   2679     1
   2670   2672     1
   2670   2680     1
   2670   2682     1
   2670   2685     1
   2670   2686     1
   2669   2673     1
   2669   2683     1
   2669   2687     1
   2668   2683     1
   2668   2685     1
   2667   2669     1
   2667   2683     1
   2667   2684     1
   2667   2688     1
   2666   2670     1
   2666   2685     1
   2665   2667     1
   2665   2668     1
   2665   2682     1
   2664   2667     1
   2664   2668     1
   2664   2682     1
   2663   2683     1
   2662   2667     1
   2659   2664     1
   2659   2665     1
   2715   2718     1
   2715   2717     1
   2713   2715     1
   2713   2716     1
   2713   2719     1
   2712   2717     1
   2709   2711     1
   2707   2709     1
   2705   2707     1
   2705   2708     1
   2704   2709     1
   2703   2710     1
   2703   2705     1
   2703   2706     1
   2701   2715     1
   2701   2705     1
   2701   2709     1
   2700   2702     1
   2700   2710     1
   2700   2712     1
   2700   2715     1
   2700   2716     1
   2699   2703     1
   2699   2713     1
   2699   2717     1
   2698   2713     1
   2698   2715     1
   2697   2699     1
   2697   2713     1
   2697   2714     1
   2697   2718     1
   2696   2700     1
   2696   2715     1
   2695   2697     1
   2695   2698     1
   2695   2712     1
   2694   2697     1
   2694   2698     1
   2694   2712     1
   2693   2713     1
   2692   2697     1
   2689   2694     1
   2689   2695     1
   2745   2748     1
   2745   2747     1
   2743   2745     1
   2743   2746     1
   2743   2749     1
   2742   2747     1
   2739   2741     1
   2737   2739     1
   2735   2737     1
   2735   2738     1
   2734   2739     1
   2733   2740     1
   2733   2735     1
   2733   2736     1
   2731   2745     1
   2731   2735     1
   2731   2739     1
   2730   2732     1
   2730   2740     1
   2730   2742     1
   2730   2745     1
   2730   2746     1
   2729   2733     1
   2729   2743     1
   2729   2747     1
   2728   2743     1
   2728   2745     1
   2727   2729     1
   2727   2743     1
   2727   2744     1
   2727   2748     1
   2726   2730     1
   2726   2745     1
   2725   2727     1
   2725   2728     1
   2725   2742     1
   2724   2727     1
   2724   2728     1
   2724   2742     1
   2723   2743     1
   2722   2727     1
   2719   2724     1
   2719   2725     1
   2775   2778     1
   2775   2777     1
   2774   2779     1
   2773   2775     1
   2773   2776     1
   2773   2779     1
   2772   2777     1
   2769   2771     1
   2767   2769     1
   2765   2767     1
   2765   2768     1
   2764   2769     1
   2763   2770     1
   2763   2765     1
   2763   2766     1
   2761   2775     1
   2761   2765     1
   2761   2769     1
   2760   2762     1
   2760   2770     1
   2760   2772     1
   2760   2775     1
   2760   2776     1
   2759   2763     1
   2759   2773     1
   2759   2777     1
   2758   2773     1
   2758   2775     1
   2757   2759     1
   2757   2773     1
   2757   2774     1
   2757   2778     1
   2756   2760     1
   2756   2775     1
   2756   2779     1
   2755   2757     1
   2755   2758     1
   2755   2772     1
   2754   2757     1
   2754   2758     1
   2754   2772     1
   2753   2773     1
   2752   2757     1
   2749   2754     1
   2749   2755     1

[ angles ]
;    ai     aj     ak funct         c0         c1         c2         c3
     32     33     34     1   108.2300464 836.800000
     32     33     35     1   108.2300464 836.800000
     32     33     36     1   102.6000440 376.560000
     28     26     32     1   109.5000469 418.400000
     26     28     30     1   109.5000469 418.400000
     26     32     33     1   120.5000516 836.800000
     21     20     24     1   119.3000511 585.760000
     20     24     25     1   112.2000481 585.760000
     18     20     21     1   116.0000497 585.760000
     18     20     24     1   123.3000528 585.760000
     17     16     18     1   120.6000517 669.440000
     16     15     25     1   119.2000511 527.184000
     16     18     20     1   125.2000537 585.760000
     15     16     17     1   128.8000552 669.440000
     15     16     18     1   111.3000477 585.760000
     15     25     24     1   127.7000547 585.760000
     14     15     16     1   130.0000557 585.760000
     14     15     25     1   110.4000473 585.760000
     12     11     25     1   105.4000452 585.760000
     12     14     15     1   103.8000445 585.760000
     11      9     28     1   109.5000469 418.400000
     11     12     14     1   113.9000488 585.760000
     11     25     15     1   106.2000455 585.760000
     11     25     24     1   126.2000541 585.760000
      9     11     12     1   128.8000552 585.760000
      9     11     25     1   125.8000539 585.760000
      9     28     26     1   109.5000469 334.720000
      9     28     30     1   109.5000469 418.400000
      8      6     26     1   109.5000469 418.400000
      8      9     11     1   109.5000469 418.400000
      8      9     28     1   109.5000469 418.400000
      6      8      9     1   109.5000469 502.080000
      6     26     28     1   109.5000469 334.720000
      6     26     32     1   109.5000469 418.400000
      3      6      8     1   109.5000469 418.400000
      3      6     26     1   109.5000469 334.720000
      2      3      6     1   109.5000469 418.400000
     62     63     64     1   108.2300464 836.800000
     62     63     65     1   108.2300464 836.800000
     62     63     66     1   102.6000440 376.560000
     58     56     62     1   109.5000469 418.400000
     56     58     60     1   109.5000469 418.400000
     56     62     63     1   120.5000516 836.800000
     52     54     55     1   120.6000517 669.440000
     51     50     52     1   120.6000517 669.440000
     50     52     54     1   126.4000542 585.760000
     48     50     51     1   125.3000537 669.440000
     48     50     52     1   114.1000489 585.760000
     46     45     54     1   121.6000521 585.760000
     46     48     50     1   120.7000517 527.184000
     45     43     58     1   109.5000469 418.400000
     45     46     48     1   121.2000519 585.760000
     45     54     52     1   115.4000495 585.760000
     45     54     55     1   120.9000518 669.440000
     43     45     46     1   121.2000519 585.760000
     43     45     54     1   117.6000504 585.760000
     43     58     56     1   109.5000469 334.720000
     43     58     60     1   109.5000469 418.400000
     42     40     56     1   109.5000469 418.400000
     42     43     45     1   109.5000469 418.400000
     42     43     58     1   109.5000469 418.400000
     40     42     43     1   109.5000469 502.080000
     40     56     58     1   109.5000469 334.720000
     40     56     62     1   109.5000469 418.400000
     37     40     42     1   109.5000469 418.400000
     37     40     56     1   109.5000469 334.720000
     36     37     40     1   109.5000469 418.400000
     35     33     36     1   108.2300464 836.800000
     34     33     35     1   119.9000514 1171.520000
     34     33     36     1   108.2300464 836.800000
     33     36     37     1   120.5000516 836.800000
     92     93     94     1   108.2300464 836.800000
     92     93     95     1   108.2300464 836.800000
     92     93     96     1   102.6000440 376.560000
     88     86     92     1   109.5000469 418.400000
     86     88     90     1   109.5000469 418.400000
     86     92     93     1   120.5000516 836.800000
     82     84     85     1   120.6000517 669.440000
     81     80     82     1   120.6000517 669.440000
     80     82     84     1   126.4000542 585.760000
     78     80     81     1   125.3000537 669.440000
     78     80     82     1   114.1000489 585.760000
     76     75     84     1   121.6000521 585.760000
     76     78     80     1   120.7000517 527.184000
     75     73     88     1   109.5000469 418.400000
     75     76     78     1   121.2000519 585.760000
     75     84     82     1   115.4000495 585.760000
     75     84     85     1   120.9000518 669.440000
     73     75     76     1   121.2000519 585.760000
     73     75     84     1   117.6000504 585.760000
     73     88     86     1   109.5000469 334.720000
     73     88     90     1   109.5000469 418.400000
     72     70     86     1   109.5000469 418.400000
     72     73     75     1   109.5000469 418.400000
     72     73     88     1   109.5000469 418.400000
     70     72     73     1   109.5000469 502.080000
     70     86     88     1   109.5000469 334.720000
     70     86     92     1   109.5000469 418.400000
     67     70     72     1   109.5000469 418.400000
     67     70     86     1   109.5000469 334.720000
     66     67     70     1   109.5000469 418.400000
     65     63     66     1   108.2300464 836.800000
     64     63     65     1   119.9000514 1171.520000
     64     63     66     1   108.2300464 836.800000
     63     66     67     1   120.5000516 836.800000
    122    123    124     1   108.2300464 836.800000
    122    123    125     1   108.2300464 836.800000
    122    123    126     1   102.6000440 376.560000
    118    116    122     1   109.5000469 418.400000
    116    118    120     1   109.5000469 418.400000
    116    122    123     1   120.5000516 836.800000
    112    114    115     1   120.6000517 669.440000
    111    110    112     1   120.6000517 669.440000
    110    112    114     1   126.4000542 585.760000
    108    110    111     1   125.3000537 669.440000
    108    110    112     1   114.1000489 585.760000
    106    105    114     1   121.6000521 585.760000
    106    108    110     1   120.7000517 527.184000
    105    103    118     1   109.5000469 418.400000
    105    106    108     1   121.2000519 585.760000
    105    114    112     1   115.4000495 585.760000
    105    114    115     1   120.9000518 669.440000
    103    105    106     1   121.2000519 585.760000
    103    105    114     1   117.6000504 585.760000
    103    118    116     1   109.5000469 334.720000
    103    118    120     1   109.5000469 418.400000
    102    100    116     1   109.5000469 418.400000
    102    103    105     1   109.5000469 418.400000
    102    103    118     1   109.5000469 418.400000
    100    102    103     1   109.5000469 502.080000
    100    116    118     1   109.5000469 334.720000
    100    116    122     1   109.5000469 418.400000
     97    100    102     1   109.5000469 418.400000
     97    100    116     1   109.5000469 334.720000
     96     97    100     1   109.5000469 418.400000
     95     93     96     1   108.2300464 836.800000
     94     93     95     1   119.9000514 1171.520000
     94     93     96     1   108.2300464 836.800000
     93     96     97     1   120.5000516 836.800000
    152    153    154     1   108.2300464 836.800000
    152    153    155     1   108.2300464 836.800000
    152    153    156     1   102.6000440 376.560000
    148    146    152     1   109.5000469 418.400000
    146    148    150     1   109.5000469 418.400000
    146    152    153     1   120.5000516 836.800000
    142    144    145     1   120.6000517 669.440000
    141    140    142     1   120.6000517 669.440000
    140    142    144     1   126.4000542 585.760000
    138    140    141     1   125.3000537 669.440000
    138    140    142     1   114.1000489 585.760000
    136    135    144     1   121.6000521 585.760000
    136    138    140     1   120.7000517 527.184000
    135    133    148     1   109.5000469 418.400000
    135    136    138     1   121.2000519 585.760000
    135    144    142     1   115.4000495 585.760000
    135    144    145     1   120.9000518 669.440000
    133    135    136     1   121.2000519 585.760000
    133    135    144     1   117.6000504 585.760000
    133    148    146     1   109.5000469 334.720000
    133    148    150     1   109.5000469 418.400000
    132    130    146     1   109.5000469 418.400000
    132    133    135     1   109.5000469 418.400000
    132    133    148     1   109.5000469 418.400000
    130    132    133     1   109.5000469 502.080000
    130    146    148     1   109.5000469 334.720000
    130    146    152     1   109.5000469 418.400000
    127    130    132     1   109.5000469 418.400000
    127    130    146     1   109.5000469 334.720000
    126    127    130     1   109.5000469 418.400000
    125    123    126     1   108.2300464 836.800000
    124    123    125     1   119.9000514 1171.520000
    124    123    126     1   108.2300464 836.800000
    123    126    127     1   120.5000516 836.800000
    182    183    184     1   108.2300464 836.800000
    182    183    185     1   108.2300464 836.800000
    182    183    186     1   102.6000440 376.560000
    178    176    182     1   109.5000469 418.400000
    176    178    180     1   109.5000469 418.400000
    176    182    183     1   120.5000516 836.800000
    172    174    175     1   120.6000517 669.440000
    171    170    172     1   120.6000517 669.440000
    170    172    174     1   126.4000542 585.760000
    168    170    171     1   125.3000537 669.440000
    168    170    172     1   114.1000489 585.760000
    166    165    174     1   121.6000521 585.760000
    166    168    170     1   120.7000517 527.184000
    165    163    178     1   109.5000469 418.400000
    165    166    168     1   121.2000519 585.760000
    165    174    172     1   115.4000495 585.760000
    165    174    175     1   120.9000518 669.440000
    163    165    166     1   121.2000519 585.760000
    163    165    174     1   117.6000504 585.760000
    163    178    176     1   109.5000469 334.720000
    163    178    180     1   109.5000469 418.400000
    162    160    176     1   109.5000469 418.400000
    162    163    165     1   109.5000469 418.400000
    162    163    178     1   109.5000469 418.400000
    160    162    163     1   109.5000469 502.080000
    160    176    178     1   109.5000469 334.720000
    160    176    182     1   109.5000469 418.400000
    157    160    162     1   109.5000469 418.400000
    157    160    176     1   109.5000469 334.720000
    156    157    160     1   109.5000469 418.400000
    155    153    156     1   108.2300464 836.800000
    154    153    155     1   119.9000514 1171.520000
    154    153    156     1   108.2300464 836.800000
    153    156    157     1   120.5000516 836.800000
    215    216    217     1   108.2300464 836.800000
    215    216    218     1   108.2300464 836.800000
    215    216    219     1   102.6000440 376.560000
    211    209    215     1   109.5000469 418.400000
    209    211    213     1   109.5000469 418.400000
    209    215    216     1   120.5000516 836.800000
    205    207    208     1   111.0000476 585.760000
    204    205    207     1   129.1000553 585.760000
    201    200    204     1   119.3000511 585.760000
    200    199    208     1   117.3000503 527.184000
    200    204    205     1   118.6000508 585.760000
    199    200    201     1   123.5000529 585.760000
    199    200    204     1   117.3000503 585.760000
    199    208    207     1   127.7000547 585.760000
    198    199    200     1   132.4000567 585.760000
    198    199    208     1   110.4000473 585.760000
    196    195    208     1   105.4000452 585.760000
    196    198    199     1   103.8000445 585.760000
    195    193    211     1   109.5000469 418.400000
    195    196    198     1   113.9000488 585.760000
    195    208    199     1   106.2000455 585.760000
    195    208    207     1   126.2000541 585.760000
    193    195    196     1   128.8000552 585.760000
    193    195    208     1   125.8000539 585.760000
    193    211    209     1   109.5000469 334.720000
    193    211    213     1   109.5000469 418.400000
    192    190    209     1   109.5000469 418.400000
    192    193    195     1   109.5000469 418.400000
    192    193    211     1   109.5000469 418.400000
    190    192    193     1   109.5000469 502.080000
    190    209    211     1   109.5000469 334.720000
    190    209    215     1   109.5000469 418.400000
    187    190    192     1   109.5000469 418.400000
    187    190    209     1   109.5000469 334.720000
    186    187    190     1   109.5000469 418.400000
    185    183    186     1   108.2300464 836.800000
    184    183    185     1   119.9000514 1171.520000
    184    183    186     1   108.2300464 836.800000
    183    186    187     1   120.5000516 836.800000
    248    249    250     1   108.2300464 836.800000
    248    249    251     1   108.2300464 836.800000
    248    249    252     1   102.6000440 376.560000
    244    242    248     1   109.5000469 418.400000
    242    244    246     1   109.5000469 418.400000
    242    248    249     1   120.5000516 836.800000
    238    240    241     1   111.0000476 585.760000
    237    238    240     1   129.1000553 585.760000
    234    233    237     1   119.3000511 585.760000
    233    232    241     1   117.3000503 527.184000
    233    237    238     1   118.6000508 585.760000
    232    233    234     1   123.5000529 585.760000
    232    233    237     1   117.3000503 585.760000
    232    241    240     1   127.7000547 585.760000
    231    232    233     1   132.4000567 585.760000
    231    232    241     1   110.4000473 585.760000
    229    228    241     1   105.4000452 585.760000
    229    231    232     1   103.8000445 585.760000
    228    226    244     1   109.5000469 418.400000
    228    229    231     1   113.9000488 585.760000
    228    241    232     1   106.2000455 585.760000
    228    241    240     1   126.2000541 585.760000
    226    228    229     1   128.8000552 585.760000
    226    228    241     1   125.8000539 585.760000
    226    244    242     1   109.5000469 334.720000
    226    244    246     1   109.5000469 418.400000
    225    223    242     1   109.5000469 418.400000
    225    226    228     1   109.5000469 418.400000
    225    226    244     1   109.5000469 418.400000
    223    225    226     1   109.5000469 502.080000
    223    242    244     1   109.5000469 334.720000
    223    242    248     1   109.5000469 418.400000
    220    223    225     1   109.5000469 418.400000
    220    223    242     1   109.5000469 334.720000
    219    220    223     1   109.5000469 418.400000
    218    216    219     1   108.2300464 836.800000
    217    216    218     1   119.9000514 1171.520000
    217    216    219     1   108.2300464 836.800000
    216    219    220     1   120.5000516 836.800000
    281    282    283     1   108.2300464 836.800000
    281    282    284     1   108.2300464 836.800000
    281    282    285     1   102.6000440 376.560000
    277    275    281     1   109.5000469 418.400000
    275    277    279     1   109.5000469 418.400000
    275    281    282     1   120.5000516 836.800000
    271    273    274     1   111.0000476 585.760000
    270    271    273     1   129.1000553 585.760000
    267    266    270     1   119.3000511 585.760000
    266    265    274     1   117.3000503 527.184000
    266    270    271     1   118.6000508 585.760000
    265    266    267     1   123.5000529 585.760000
    265    266    270     1   117.3000503 585.760000
    265    274    273     1   127.7000547 585.760000
    264    265    266     1   132.4000567 585.760000
    264    265    274     1   110.4000473 585.760000
    262    261    274     1   105.4000452 585.760000
    262    264    265     1   103.8000445 585.760000
    261    259    277     1   109.5000469 418.400000
    261    262    264     1   113.9000488 585.760000
    261    274    265     1   106.2000455 585.760000
    261    274    273     1   126.2000541 585.760000
    259    261    262     1   128.8000552 585.760000
    259    261    274     1   125.8000539 585.760000
    259    277    275     1   109.5000469 334.720000
    259    277    279     1   109.5000469 418.400000
    258    256    275     1   109.5000469 418.400000
    258    259    261     1   109.5000469 418.400000
    258    259    277     1   109.5000469 418.400000
    256    258    259     1   109.5000469 502.080000
    256    275    277     1   109.5000469 334.720000
    256    275    281     1   109.5000469 418.400000
    253    256    258     1   109.5000469 418.400000
    253    256    275     1   109.5000469 334.720000
    252    253    256     1   109.5000469 418.400000
    251    249    252     1   108.2300464 836.800000
    250    249    251     1   119.9000514 1171.520000
    250    249    252     1   108.2300464 836.800000
    249    252    253     1   120.5000516 836.800000
    312    313    314     1   108.2300464 836.800000
    312    313    315     1   108.2300464 836.800000
    312    313    316     1   102.6000440 376.560000
    308    306    312     1   109.5000469 418.400000
    306    308    310     1   109.5000469 418.400000
    306    312    313     1   120.5000516 836.800000
    303    304    305     1   122.5000525 669.440000
    300    299    303     1   119.3000511 585.760000
    299    303    304     1   120.5000516 585.760000
    297    299    300     1   120.1000515 585.760000
    297    299    303     1   121.5000521 585.760000
    295    294    304     1   121.6000521 585.760000
    295    297    299     1   117.0000501 527.184000
    294    292    308     1   109.5000469 418.400000
    294    295    297     1   121.2000519 585.760000
    294    304    303     1   118.6000508 585.760000
    294    304    305     1   120.9000518 669.440000
    292    294    295     1   121.2000519 585.760000
    292    294    304     1   117.6000504 585.760000
    292    308    306     1   109.5000469 334.720000
    292    308    310     1   109.5000469 418.400000
    291    289    306     1   109.5000469 418.400000
    291    292    294     1   109.5000469 418.400000
    291    292    308     1   109.5000469 418.400000
    289    291    292     1   109.5000469 502.080000
    289    306    308     1   109.5000469 334.720000
    289    306    312     1   109.5000469 418.400000
    286    289    291     1   109.5000469 418.400000
    286    289    306     1   109.5000469 334.720000
    285    286    289     1   109.5000469 418.400000
    284    282    285     1   108.2300464 836.800000
    283    282    284     1   119.9000514 1171.520000
    283    282    285     1   108.2300464 836.800000
    282    285    286     1   120.5000516 836.800000
    346    347    348     1   108.2300464 836.800000
    346    347    349     1   108.2300464 836.800000
    346    347    350     1   102.6000440 376.560000
    342    340    346     1   109.5000469 418.400000
    340    342    344     1   109.5000469 418.400000
    340    346    347     1   120.5000516 836.800000
    335    334    338     1   119.3000511 585.760000
    334    338    339     1   112.2000481 585.760000
    332    334    335     1   116.0000497 585.760000
    332    334    338     1   123.3000528 585.760000
    331    330    332     1   120.6000517 669.440000
    330    329    339     1   119.2000511 527.184000
    330    332    334     1   125.2000537 585.760000
    329    330    331     1   128.8000552 669.440000
    329    330    332     1   111.3000477 585.760000
    329    339    338     1   127.7000547 585.760000
    328    329    330     1   130.0000557 585.760000
    328    329    339     1   110.4000473 585.760000
    326    325    339     1   105.4000452 585.760000
    326    328    329     1   103.8000445 585.760000
    325    323    342     1   109.5000469 418.400000
    325    326    328     1   113.9000488 585.760000
    325    339    329     1   106.2000455 585.760000
    325    339    338     1   126.2000541 585.760000
    323    325    326     1   128.8000552 585.760000
    323    325    339     1   125.8000539 585.760000
    323    342    340     1   109.5000469 334.720000
    323    342    344     1   109.5000469 418.400000
    322    320    340     1   109.5000469 418.400000
    322    323    325     1   109.5000469 418.400000
    322    323    342     1   109.5000469 418.400000
    320    322    323     1   109.5000469 502.080000
    320    340    342     1   109.5000469 334.720000
    320    340    346     1   109.5000469 418.400000
    317    320    322     1   109.5000469 418.400000
    317    320    340     1   109.5000469 334.720000
    316    317    320     1   109.5000469 418.400000
    315    313    316     1   108.2300464 836.800000
    314    313    315     1   119.9000514 1171.520000
    314    313    316     1   108.2300464 836.800000
    313    316    317     1   120.5000516 836.800000
    380    381    382     1   108.2300464 836.800000
    380    381    383     1   108.2300464 836.800000
    380    381    384     1   102.6000440 376.560000
    376    374    380     1   109.5000469 418.400000
    374    376    378     1   109.5000469 418.400000
    374    380    381     1   120.5000516 836.800000
    369    368    372     1   119.3000511 585.760000
    368    372    373     1   112.2000481 585.760000
    366    368    369     1   116.0000497 585.760000
    366    368    372     1   123.3000528 585.760000
    365    364    366     1   120.6000517 669.440000
    364    363    373     1   119.2000511 527.184000
    364    366    368     1   125.2000537 585.760000
    363    364    365     1   128.8000552 669.440000
    363    364    366     1   111.3000477 585.760000
    363    373    372     1   127.7000547 585.760000
    362    363    364     1   130.0000557 585.760000
    362    363    373     1   110.4000473 585.760000
    360    359    373     1   105.4000452 585.760000
    360    362    363     1   103.8000445 585.760000
    359    357    376     1   109.5000469 418.400000
    359    360    362     1   113.9000488 585.760000
    359    373    363     1   106.2000455 585.760000
    359    373    372     1   126.2000541 585.760000
    357    359    360     1   128.8000552 585.760000
    357    359    373     1   125.8000539 585.760000
    357    376    374     1   109.5000469 334.720000
    357    376    378     1   109.5000469 418.400000
    356    354    374     1   109.5000469 418.400000
    356    357    359     1   109.5000469 418.400000
    356    357    376     1   109.5000469 418.400000
    354    356    357     1   109.5000469 502.080000
    354    374    376     1   109.5000469 334.720000
    354    374    380     1   109.5000469 418.400000
    351    354    356     1   109.5000469 418.400000
    351    354    374     1   109.5000469 334.720000
    350    351    354     1   109.5000469 418.400000
    349    347    350     1   108.2300464 836.800000
    348    347    349     1   119.9000514 1171.520000
    348    347    350     1   108.2300464 836.800000
    347    350    351     1   120.5000516 836.800000
    414    415    416     1   108.2300464 836.800000
    414    415    417     1   108.2300464 836.800000
    414    415    418     1   102.6000440 376.560000
    410    408    414     1   109.5000469 418.400000
    408    410    412     1   109.5000469 418.400000
    408    414    415     1   120.5000516 836.800000
    403    402    406     1   119.3000511 585.760000
    402    406    407     1   112.2000481 585.760000
    400    402    403     1   116.0000497 585.760000
    400    402    406     1   123.3000528 585.760000
    399    398    400     1   120.6000517 669.440000
    398    397    407     1   119.2000511 527.184000
    398    400    402     1   125.2000537 585.760000
    397    398    399     1   128.8000552 669.440000
    397    398    400     1   111.3000477 585.760000
    397    407    406     1   127.7000547 585.760000
    396    397    398     1   130.0000557 585.760000
    396    397    407     1   110.4000473 585.760000
    394    393    407     1   105.4000452 585.760000
    394    396    397     1   103.8000445 585.760000
    393    391    410     1   109.5000469 418.400000
    393    394    396     1   113.9000488 585.760000
    393    407    397     1   106.2000455 585.760000
    393    407    406     1   126.2000541 585.760000
    391    393    394     1   128.8000552 585.760000
    391    393    407     1   125.8000539 585.760000
    391    410    408     1   109.5000469 334.720000
    391    410    412     1   109.5000469 418.400000
    390    388    408     1   109.5000469 418.400000
    390    391    393     1   109.5000469 418.400000
    390    391    410     1   109.5000469 418.400000
    388    390    391     1   109.5000469 502.080000
    388    408    410     1   109.5000469 334.720000
    388    408    414     1   109.5000469 418.400000
    385    388    390     1   109.5000469 418.400000
    385    388    408     1   109.5000469 334.720000
    384    385    388     1   109.5000469 418.400000
    383    381    384     1   108.2300464 836.800000
    382    381    383     1   119.9000514 1171.520000
    382    381    384     1   108.2300464 836.800000
    381    384    385     1   120.5000516 836.800000
    444    445    446     1   108.2300464 836.800000
    444    445    447     1   108.2300464 836.800000
    444    445    448     1   102.6000440 376.560000
    440    438    444     1   109.5000469 418.400000
    438    440    442     1   109.5000469 418.400000
    438    444    445     1   120.5000516 836.800000
    434    436    437     1   120.6000517 669.440000
    433    432    434     1   120.6000517 669.440000
    432    434    436     1   126.4000542 585.760000
    430    432    433     1   125.3000537 669.440000
    430    432    434     1   114.1000489 585.760000
    428    427    436     1   121.6000521 585.760000
    428    430    432     1   120.7000517 527.184000
    427    425    440     1   109.5000469 418.400000
    427    428    430     1   121.2000519 585.760000
    427    436    434     1   115.4000495 585.760000
    427    436    437     1   120.9000518 669.440000
    425    427    428     1   121.2000519 585.760000
    425    427    436     1   117.6000504 585.760000
    425    440    438     1   109.5000469 334.720000
    425    440    442     1   109.5000469 418.400000
    424    422    438     1   109.5000469 418.400000
    424    425    427     1   109.5000469 418.400000
    424    425    440     1   109.5000469 418.400000
    422    424    425     1   109.5000469 502.080000
    422    438    440     1   109.5000469 334.720000
    422    438    444     1   109.5000469 418.400000
    419    422    424     1   109.5000469 418.400000
    419    422    438     1   109.5000469 334.720000
    418    419    422     1   109.5000469 418.400000
    417    415    418     1   108.2300464 836.800000
    416    415    417     1   119.9000514 1171.520000
    416    415    418     1   108.2300464 836.800000
    415    418    419     1   120.5000516 836.800000
    474    475    476     1   108.2300464 836.800000
    474    475    477     1   108.2300464 836.800000
    474    475    478     1   102.6000440 376.560000
    470    468    474     1   109.5000469 418.400000
    468    470    472     1   109.5000469 418.400000
    468    474    475     1   120.5000516 836.800000
    464    466    467     1   120.6000517 669.440000
    463    462    464     1   120.6000517 669.440000
    462    464    466     1   126.4000542 585.760000
    460    462    463     1   125.3000537 669.440000
    460    462    464     1   114.1000489 585.760000
    458    457    466     1   121.6000521 585.760000
    458    460    462     1   120.7000517 527.184000
    457    455    470     1   109.5000469 418.400000
    457    458    460     1   121.2000519 585.760000
    457    466    464     1   115.4000495 585.760000
    457    466    467     1   120.9000518 669.440000
    455    457    458     1   121.2000519 585.760000
    455    457    466     1   117.6000504 585.760000
    455    470    468     1   109.5000469 334.720000
    455    470    472     1   109.5000469 418.400000
    454    452    468     1   109.5000469 418.400000
    454    455    457     1   109.5000469 418.400000
    454    455    470     1   109.5000469 418.400000
    452    454    455     1   109.5000469 502.080000
    452    468    470     1   109.5000469 334.720000
    452    468    474     1   109.5000469 418.400000
    449    452    454     1   109.5000469 418.400000
    449    452    468     1   109.5000469 334.720000
    448    449    452     1   109.5000469 418.400000
    447    445    448     1   108.2300464 836.800000
    446    445    447     1   119.9000514 1171.520000
    446    445    448     1   108.2300464 836.800000
    445    448    449     1   120.5000516 836.800000
    504    505    506     1   108.2300464 836.800000
    504    505    507     1   108.2300464 836.800000
    504    505    508     1   102.6000440 376.560000
    500    498    504     1   109.5000469 418.400000
    498    500    502     1   109.5000469 418.400000
    498    504    505     1   120.5000516 836.800000
    494    496    497     1   120.6000517 669.440000
    493    492    494     1   120.6000517 669.440000
    492    494    496     1   126.4000542 585.760000
    490    492    493     1   125.3000537 669.440000
    490    492    494     1   114.1000489 585.760000
    488    487    496     1   121.6000521 585.760000
    488    490    492     1   120.7000517 527.184000
    487    485    500     1   109.5000469 418.400000
    487    488    490     1   121.2000519 585.760000
    487    496    494     1   115.4000495 585.760000
    487    496    497     1   120.9000518 669.440000
    485    487    488     1   121.2000519 585.760000
    485    487    496     1   117.6000504 585.760000
    485    500    498     1   109.5000469 334.720000
    485    500    502     1   109.5000469 418.400000
    484    482    498     1   109.5000469 418.400000
    484    485    487     1   109.5000469 418.400000
    484    485    500     1   109.5000469 418.400000
    482    484    485     1   109.5000469 502.080000
    482    498    500     1   109.5000469 334.720000
    482    498    504     1   109.5000469 418.400000
    479    482    484     1   109.5000469 418.400000
    479    482    498     1   109.5000469 334.720000
    478    479    482     1   109.5000469 418.400000
    477    475    478     1   108.2300464 836.800000
    476    475    477     1   119.9000514 1171.520000
    476    475    478     1   108.2300464 836.800000
    475    478    479     1   120.5000516 836.800000
    538    539    540     1   108.2300464 836.800000
    538    539    541     1   108.2300464 836.800000
    538    539    542     1   102.6000440 376.560000
    534    532    538     1   109.5000469 418.400000
    532    534    536     1   109.5000469 418.400000
    532    538    539     1   120.5000516 836.800000
    527    526    530     1   119.3000511 585.760000
    526    530    531     1   112.2000481 585.760000
    524    526    527     1   116.0000497 585.760000
    524    526    530     1   123.3000528 585.760000
    523    522    524     1   120.6000517 669.440000
    522    521    531     1   119.2000511 527.184000
    522    524    526     1   125.2000537 585.760000
    521    522    523     1   128.8000552 669.440000
    521    522    524     1   111.3000477 585.760000
    521    531    530     1   127.7000547 585.760000
    520    521    522     1   130.0000557 585.760000
    520    521    531     1   110.4000473 585.760000
    518    517    531     1   105.4000452 585.760000
    518    520    521     1   103.8000445 585.760000
    517    515    534     1   109.5000469 418.400000
    517    518    520     1   113.9000488 585.760000
    517    531    521     1   106.2000455 585.760000
    517    531    530     1   126.2000541 585.760000
    515    517    518     1   128.8000552 585.760000
    515    517    531     1   125.8000539 585.760000
    515    534    532     1   109.5000469 334.720000
    515    534    536     1   109.5000469 418.400000
    514    512    532     1   109.5000469 418.400000
    514    515    517     1   109.5000469 418.400000
    514    515    534     1   109.5000469 418.400000
    512    514    515     1   109.5000469 502.080000
    512    532    534     1   109.5000469 334.720000
    512    532    538     1   109.5000469 418.400000
    509    512    514     1   109.5000469 418.400000
    509    512    532     1   109.5000469 334.720000
    508    509    512     1   109.5000469 418.400000
    507    505    508     1   108.2300464 836.800000
    506    505    507     1   119.9000514 1171.520000
    506    505    508     1   108.2300464 836.800000
    505    508    509     1   120.5000516 836.800000
    569    570    571     1   108.2300464 836.800000
    569    570    572     1   108.2300464 836.800000
    569    570    573     1   102.6000440 376.560000
    565    563    569     1   109.5000469 418.400000
    563    565    567     1   109.5000469 418.400000
    563    569    570     1   120.5000516 836.800000
    560    561    562     1   122.5000525 669.440000
    557    556    560     1   119.3000511 585.760000
    556    560    561     1   120.5000516 585.760000
    554    556    557     1   120.1000515 585.760000
    554    556    560     1   121.5000521 585.760000
    552    551    561     1   121.6000521 585.760000
    552    554    556     1   117.0000501 527.184000
    551    549    565     1   109.5000469 418.400000
    551    552    554     1   121.2000519 585.760000
    551    561    560     1   118.6000508 585.760000
    551    561    562     1   120.9000518 669.440000
    549    551    552     1   121.2000519 585.760000
    549    551    561     1   117.6000504 585.760000
    549    565    563     1   109.5000469 334.720000
    549    565    567     1   109.5000469 418.400000
    548    546    563     1   109.5000469 418.400000
    548    549    551     1   109.5000469 418.400000
    548    549    565     1   109.5000469 418.400000
    546    548    549     1   109.5000469 502.080000
    546    563    565     1   109.5000469 334.720000
    546    563    569     1   109.5000469 418.400000
    543    546    548     1   109.5000469 418.400000
    543    546    563     1   109.5000469 334.720000
    542    543    546     1   109.5000469 418.400000
    541    539    542     1   108.2300464 836.800000
    540    539    541     1   119.9000514 1171.520000
    540    539    542     1   108.2300464 836.800000
    539    542    543     1   120.5000516 836.800000
    603    604    605     1   108.2300464 836.800000
    603    604    606     1   108.2300464 836.800000
    603    604    607     1   102.6000440 376.560000
    599    597    603     1   109.5000469 418.400000
    597    599    601     1   109.5000469 418.400000
    597    603    604     1   120.5000516 836.800000
    592    591    595     1   119.3000511 585.760000
    591    595    596     1   112.2000481 585.760000
    589    591    592     1   116.0000497 585.760000
    589    591    595     1   123.3000528 585.760000
    588    587    589     1   120.6000517 669.440000
    587    586    596     1   119.2000511 527.184000
    587    589    591     1   125.2000537 585.760000
    586    587    588     1   128.8000552 669.440000
    586    587    589     1   111.3000477 585.760000
    586    596    595     1   127.7000547 585.760000
    585    586    587     1   130.0000557 585.760000
    585    586    596     1   110.4000473 585.760000
    583    582    596     1   105.4000452 585.760000
    583    585    586     1   103.8000445 585.760000
    582    580    599     1   109.5000469 418.400000
    582    583    585     1   113.9000488 585.760000
    582    596    586     1   106.2000455 585.760000
    582    596    595     1   126.2000541 585.760000
    580    582    583     1   128.8000552 585.760000
    580    582    596     1   125.8000539 585.760000
    580    599    597     1   109.5000469 334.720000
    580    599    601     1   109.5000469 418.400000
    579    577    597     1   109.5000469 418.400000
    579    580    582     1   109.5000469 418.400000
    579    580    599     1   109.5000469 418.400000
    577    579    580     1   109.5000469 502.080000
    577    597    599     1   109.5000469 334.720000
    577    597    603     1   109.5000469 418.400000
    574    577    579     1   109.5000469 418.400000
    574    577    597     1   109.5000469 334.720000
    573    574    577     1   109.5000469 418.400000
    572    570    573     1   108.2300464 836.800000
    571    570    572     1   119.9000514 1171.520000
    571    570    573     1   108.2300464 836.800000
    570    573    574     1   120.5000516 836.800000
    637    638    639     1   108.2300464 836.800000
    637    638    640     1   108.2300464 836.800000
    637    638    641     1   102.6000440 376.560000
    633    631    637     1   109.5000469 418.400000
    631    633    635     1   109.5000469 418.400000
    631    637    638     1   120.5000516 836.800000
    626    625    629     1   119.3000511 585.760000
    625    629    630     1   112.2000481 585.760000
    623    625    626     1   116.0000497 585.760000
    623    625    629     1   123.3000528 585.760000
    622    621    623     1   120.6000517 669.440000
    621    620    630     1   119.2000511 527.184000
    621    623    625     1   125.2000537 585.760000
    620    621    622     1   128.8000552 669.440000
    620    621    623     1   111.3000477 585.760000
    620    630    629     1   127.7000547 585.760000
    619    620    621     1   130.0000557 585.760000
    619    620    630     1   110.4000473 585.760000
    617    616    630     1   105.4000452 585.760000
    617    619    620     1   103.8000445 585.760000
    616    614    633     1   109.5000469 418.400000
    616    617    619     1   113.9000488 585.760000
    616    630    620     1   106.2000455 585.760000
    616    630    629     1   126.2000541 585.760000
    614    616    617     1   128.8000552 585.760000
    614    616    630     1   125.8000539 585.760000
    614    633    631     1   109.5000469 334.720000
    614    633    635     1   109.5000469 418.400000
    613    611    631     1   109.5000469 418.400000
    613    614    616     1   109.5000469 418.400000
    613    614    633     1   109.5000469 418.400000
    611    613    614     1   109.5000469 502.080000
    611    631    633     1   109.5000469 334.720000
    611    631    637     1   109.5000469 418.400000
    608    611    613     1   109.5000469 418.400000
    608    611    631     1   109.5000469 334.720000
    607    608    611     1   109.5000469 418.400000
    606    604    607     1   108.2300464 836.800000
    605    604    606     1   119.9000514 1171.520000
    605    604    607     1   108.2300464 836.800000
    604    607    608     1   120.5000516 836.800000
    667    668    669     1   108.2300464 836.800000
    667    668    670     1   108.2300464 836.800000
    667    668    671     1   102.6000440 376.560000
    663    661    667     1   109.5000469 418.400000
    661    663    665     1   109.5000469 418.400000
    661    667    668     1   120.5000516 836.800000
    657    659    660     1   120.6000517 669.440000
    656    655    657     1   120.6000517 669.440000
    655    657    659     1   126.4000542 585.760000
    653    655    656     1   125.3000537 669.440000
    653    655    657     1   114.1000489 585.760000
    651    650    659     1   121.6000521 585.760000
    651    653    655     1   120.7000517 527.184000
    650    648    663     1   109.5000469 418.400000
    650    651    653     1   121.2000519 585.760000
    650    659    657     1   115.4000495 585.760000
    650    659    660     1   120.9000518 669.440000
    648    650    651     1   121.2000519 585.760000
    648    650    659     1   117.6000504 585.760000
    648    663    661     1   109.5000469 334.720000
    648    663    665     1   109.5000469 418.400000
    647    645    661     1   109.5000469 418.400000
    647    648    650     1   109.5000469 418.400000
    647    648    663     1   109.5000469 418.400000
    645    647    648     1   109.5000469 502.080000
    645    661    663     1   109.5000469 334.720000
    645    661    667     1   109.5000469 418.400000
    642    645    647     1   109.5000469 418.400000
    642    645    661     1   109.5000469 334.720000
    641    642    645     1   109.5000469 418.400000
    640    638    641     1   108.2300464 836.800000
    639    638    640     1   119.9000514 1171.520000
    639    638    641     1   108.2300464 836.800000
    638    641    642     1   120.5000516 836.800000
    701    702    703     1   108.2300464 836.800000
    701    702    704     1   108.2300464 836.800000
    701    702    705     1   102.6000440 376.560000
    697    695    701     1   109.5000469 418.400000
    695    697    699     1   109.5000469 418.400000
    695    701    702     1   120.5000516 836.800000
    690    689    693     1   119.3000511 585.760000
    689    693    694     1   112.2000481 585.760000
    687    689    690     1   116.0000497 585.760000
    687    689    693     1   123.3000528 585.760000
    686    685    687     1   120.6000517 669.440000
    685    684    694     1   119.2000511 527.184000
    685    687    689     1   125.2000537 585.760000
    684    685    686     1   128.8000552 669.440000
    684    685    687     1   111.3000477 585.760000
    684    694    693     1   127.7000547 585.760000
    683    684    685     1   130.0000557 585.760000
    683    684    694     1   110.4000473 585.760000
    681    680    694     1   105.4000452 585.760000
    681    683    684     1   103.8000445 585.760000
    680    678    697     1   109.5000469 418.400000
    680    681    683     1   113.9000488 585.760000
    680    694    684     1   106.2000455 585.760000
    680    694    693     1   126.2000541 585.760000
    678    680    681     1   128.8000552 585.760000
    678    680    694     1   125.8000539 585.760000
    678    697    695     1   109.5000469 334.720000
    678    697    699     1   109.5000469 418.400000
    677    675    695     1   109.5000469 418.400000
    677    678    680     1   109.5000469 418.400000
    677    678    697     1   109.5000469 418.400000
    675    677    678     1   109.5000469 502.080000
    675    695    697     1   109.5000469 334.720000
    675    695    701     1   109.5000469 418.400000
    672    675    677     1   109.5000469 418.400000
    672    675    695     1   109.5000469 334.720000
    671    672    675     1   109.5000469 418.400000
    670    668    671     1   108.2300464 836.800000
    669    668    670     1   119.9000514 1171.520000
    669    668    671     1   108.2300464 836.800000
    668    671    672     1   120.5000516 836.800000
    731    732    733     1   108.2300464 836.800000
    731    732    734     1   108.2300464 836.800000
    731    732    735     1   102.6000440 376.560000
    727    725    731     1   109.5000469 418.400000
    725    727    729     1   109.5000469 418.400000
    725    731    732     1   120.5000516 836.800000
    721    723    724     1   120.6000517 669.440000
    720    719    721     1   120.6000517 669.440000
    719    721    723     1   126.4000542 585.760000
    717    719    720     1   125.3000537 669.440000
    717    719    721     1   114.1000489 585.760000
    715    714    723     1   121.6000521 585.760000
    715    717    719     1   120.7000517 527.184000
    714    712    727     1   109.5000469 418.400000
    714    715    717     1   121.2000519 585.760000
    714    723    721     1   115.4000495 585.760000
    714    723    724     1   120.9000518 669.440000
    712    714    715     1   121.2000519 585.760000
    712    714    723     1   117.6000504 585.760000
    712    727    725     1   109.5000469 334.720000
    712    727    729     1   109.5000469 418.400000
    711    709    725     1   109.5000469 418.400000
    711    712    714     1   109.5000469 418.400000
    711    712    727     1   109.5000469 418.400000
    709    711    712     1   109.5000469 502.080000
    709    725    727     1   109.5000469 334.720000
    709    725    731     1   109.5000469 418.400000
    706    709    711     1   109.5000469 418.400000
    706    709    725     1   109.5000469 334.720000
    705    706    709     1   109.5000469 418.400000
    704    702    705     1   108.2300464 836.800000
    703    702    704     1   119.9000514 1171.520000
    703    702    705     1   108.2300464 836.800000
    702    705    706     1   120.5000516 836.800000
    764    765    766     1   108.2300464 836.800000
    764    765    767     1   108.2300464 836.800000
    764    765    768     1   102.6000440 376.560000
    760    758    764     1   109.5000469 418.400000
    758    760    762     1   109.5000469 418.400000
    758    764    765     1   120.5000516 836.800000
    754    756    757     1   111.0000476 585.760000
    753    754    756     1   129.1000553 585.760000
    750    749    753     1   119.3000511 585.760000
    749    748    757     1   117.3000503 527.184000
    749    753    754     1   118.6000508 585.760000
    748    749    750     1   123.5000529 585.760000
    748    749    753     1   117.3000503 585.760000
    748    757    756     1   127.7000547 585.760000
    747    748    749     1   132.4000567 585.760000
    747    748    757     1   110.4000473 585.760000
    745    744    757     1   105.4000452 585.760000
    745    747    748     1   103.8000445 585.760000
    744    742    760     1   109.5000469 418.400000
    744    745    747     1   113.9000488 585.760000
    744    757    748     1   106.2000455 585.760000
    744    757    756     1   126.2000541 585.760000
    742    744    745     1   128.8000552 585.760000
    742    744    757     1   125.8000539 585.760000
    742    760    758     1   109.5000469 334.720000
    742    760    762     1   109.5000469 418.400000
    741    739    758     1   109.5000469 418.400000
    741    742    744     1   109.5000469 418.400000
    741    742    760     1   109.5000469 418.400000
    739    741    742     1   109.5000469 502.080000
    739    758    760     1   109.5000469 334.720000
    739    758    764     1   109.5000469 418.400000
    736    739    741     1   109.5000469 418.400000
    736    739    758     1   109.5000469 334.720000
    735    736    739     1   109.5000469 418.400000
    734    732    735     1   108.2300464 836.800000
    733    732    734     1   119.9000514 1171.520000
    733    732    735     1   108.2300464 836.800000
    732    735    736     1   120.5000516 836.800000
    797    798    799     1   108.2300464 836.800000
    797    798    800     1   108.2300464 836.800000
    797    798    801     1   102.6000440 376.560000
    793    791    797     1   109.5000469 418.400000
    791    793    795     1   109.5000469 418.400000
    791    797    798     1   120.5000516 836.800000
    787    789    790     1   111.0000476 585.760000
    786    787    789     1   129.1000553 585.760000
    783    782    786     1   119.3000511 585.760000
    782    781    790     1   117.3000503 527.184000
    782    786    787     1   118.6000508 585.760000
    781    782    783     1   123.5000529 585.760000
    781    782    786     1   117.3000503 585.760000
    781    790    789     1   127.7000547 585.760000
    780    781    782     1   132.4000567 585.760000
    780    781    790     1   110.4000473 585.760000
    778    777    790     1   105.4000452 585.760000
    778    780    781     1   103.8000445 585.760000
    777    775    793     1   109.5000469 418.400000
    777    778    780     1   113.9000488 585.760000
    777    790    781     1   106.2000455 585.760000
    777    790    789     1   126.2000541 585.760000
    775    777    778     1   128.8000552 585.760000
    775    777    790     1   125.8000539 585.760000
    775    793    791     1   109.5000469 334.720000
    775    793    795     1   109.5000469 418.400000
    774    772    791     1   109.5000469 418.400000
    774    775    777     1   109.5000469 418.400000
    774    775    793     1   109.5000469 418.400000
    772    774    775     1   109.5000469 502.080000
    772    791    793     1   109.5000469 334.720000
    772    791    797     1   109.5000469 418.400000
    769    772    774     1   109.5000469 418.400000
    769    772    791     1   109.5000469 334.720000
    768    769    772     1   109.5000469 418.400000
    767    765    768     1   108.2300464 836.800000
    766    765    767     1   119.9000514 1171.520000
    766    765    768     1   108.2300464 836.800000
    765    768    769     1   120.5000516 836.800000
    831    832    833     1   108.2300464 836.800000
    831    832    834     1   108.2300464 836.800000
    831    832    835     1   102.6000440 376.560000
    827    825    831     1   109.5000469 418.400000
    825    827    829     1   109.5000469 418.400000
    825    831    832     1   120.5000516 836.800000
    820    819    823     1   119.3000511 585.760000
    819    823    824     1   112.2000481 585.760000
    817    819    820     1   116.0000497 585.760000
    817    819    823     1   123.3000528 585.760000
    816    815    817     1   120.6000517 669.440000
    815    814    824     1   119.2000511 527.184000
    815    817    819     1   125.2000537 585.760000
    814    815    816     1   128.8000552 669.440000
    814    815    817     1   111.3000477 585.760000
    814    824    823     1   127.7000547 585.760000
    813    814    815     1   130.0000557 585.760000
    813    814    824     1   110.4000473 585.760000
    811    810    824     1   105.4000452 585.760000
    811    813    814     1   103.8000445 585.760000
    810    808    827     1   109.5000469 418.400000
    810    811    813     1   113.9000488 585.760000
    810    824    814     1   106.2000455 585.760000
    810    824    823     1   126.2000541 585.760000
    808    810    811     1   128.8000552 585.760000
    808    810    824     1   125.8000539 585.760000
    808    827    825     1   109.5000469 334.720000
    808    827    829     1   109.5000469 418.400000
    807    805    825     1   109.5000469 418.400000
    807    808    810     1   109.5000469 418.400000
    807    808    827     1   109.5000469 418.400000
    805    807    808     1   109.5000469 502.080000
    805    825    827     1   109.5000469 334.720000
    805    825    831     1   109.5000469 418.400000
    802    805    807     1   109.5000469 418.400000
    802    805    825     1   109.5000469 334.720000
    801    802    805     1   109.5000469 418.400000
    800    798    801     1   108.2300464 836.800000
    799    798    800     1   119.9000514 1171.520000
    799    798    801     1   108.2300464 836.800000
    798    801    802     1   120.5000516 836.800000
    861    862    863     1   108.2300464 836.800000
    861    862    864     1   108.2300464 836.800000
    861    862    865     1   102.6000440 376.560000
    857    855    861     1   109.5000469 418.400000
    855    857    859     1   109.5000469 418.400000
    855    861    862     1   120.5000516 836.800000
    851    853    854     1   120.6000517 669.440000
    850    849    851     1   120.6000517 669.440000
    849    851    853     1   126.4000542 585.760000
    847    849    850     1   125.3000537 669.440000
    847    849    851     1   114.1000489 585.760000
    845    844    853     1   121.6000521 585.760000
    845    847    849     1   120.7000517 527.184000
    844    842    857     1   109.5000469 418.400000
    844    845    847     1   121.2000519 585.760000
    844    853    851     1   115.4000495 585.760000
    844    853    854     1   120.9000518 669.440000
    842    844    845     1   121.2000519 585.760000
    842    844    853     1   117.6000504 585.760000
    842    857    855     1   109.5000469 334.720000
    842    857    859     1   109.5000469 418.400000
    841    839    855     1   109.5000469 418.400000
    841    842    844     1   109.5000469 418.400000
    841    842    857     1   109.5000469 418.400000
    839    841    842     1   109.5000469 502.080000
    839    855    857     1   109.5000469 334.720000
    839    855    861     1   109.5000469 418.400000
    836    839    841     1   109.5000469 418.400000
    836    839    855     1   109.5000469 334.720000
    835    836    839     1   109.5000469 418.400000
    834    832    835     1   108.2300464 836.800000
    833    832    834     1   119.9000514 1171.520000
    833    832    835     1   108.2300464 836.800000
    832    835    836     1   120.5000516 836.800000
    895    896    897     1   108.2300464 836.800000
    895    896    898     1   108.2300464 836.800000
    895    896    899     1   102.6000440 376.560000
    891    889    895     1   109.5000469 418.400000
    889    891    893     1   109.5000469 418.400000
    889    895    896     1   120.5000516 836.800000
    884    883    887     1   119.3000511 585.760000
    883    887    888     1   112.2000481 585.760000
    881    883    884     1   116.0000497 585.760000
    881    883    887     1   123.3000528 585.760000
    880    879    881     1   120.6000517 669.440000
    879    878    888     1   119.2000511 527.184000
    879    881    883     1   125.2000537 585.760000
    878    879    880     1   128.8000552 669.440000
    878    879    881     1   111.3000477 585.760000
    878    888    887     1   127.7000547 585.760000
    877    878    879     1   130.0000557 585.760000
    877    878    888     1   110.4000473 585.760000
    875    874    888     1   105.4000452 585.760000
    875    877    878     1   103.8000445 585.760000
    874    872    891     1   109.5000469 418.400000
    874    875    877     1   113.9000488 585.760000
    874    888    878     1   106.2000455 585.760000
    874    888    887     1   126.2000541 585.760000
    872    874    875     1   128.8000552 585.760000
    872    874    888     1   125.8000539 585.760000
    872    891    889     1   109.5000469 334.720000
    872    891    893     1   109.5000469 418.400000
    871    869    889     1   109.5000469 418.400000
    871    872    874     1   109.5000469 418.400000
    871    872    891     1   109.5000469 418.400000
    869    871    872     1   109.5000469 502.080000
    869    889    891     1   109.5000469 334.720000
    869    889    895     1   109.5000469 418.400000
    866    869    871     1   109.5000469 418.400000
    866    869    889     1   109.5000469 334.720000
    865    866    869     1   109.5000469 418.400000
    864    862    865     1   108.2300464 836.800000
    863    862    864     1   119.9000514 1171.520000
    863    862    865     1   108.2300464 836.800000
    862    865    866     1   120.5000516 836.800000
    926    927    928     1   108.2300464 836.800000
    926    927    929     1   108.2300464 836.800000
    926    927    930     1   102.6000440 376.560000
    922    920    926     1   109.5000469 418.400000
    920    922    924     1   109.5000469 418.400000
    920    926    927     1   120.5000516 836.800000
    917    918    919     1   122.5000525 669.440000
    914    913    917     1   119.3000511 585.760000
    913    917    918     1   120.5000516 585.760000
    911    913    914     1   120.1000515 585.760000
    911    913    917     1   121.5000521 585.760000
    909    908    918     1   121.6000521 585.760000
    909    911    913     1   117.0000501 527.184000
    908    906    922     1   109.5000469 418.400000
    908    909    911     1   121.2000519 585.760000
    908    918    917     1   118.6000508 585.760000
    908    918    919     1   120.9000518 669.440000
    906    908    909     1   121.2000519 585.760000
    906    908    918     1   117.6000504 585.760000
    906    922    920     1   109.5000469 334.720000
    906    922    924     1   109.5000469 418.400000
    905    903    920     1   109.5000469 418.400000
    905    906    908     1   109.5000469 418.400000
    905    906    922     1   109.5000469 418.400000
    903    905    906     1   109.5000469 502.080000
    903    920    922     1   109.5000469 334.720000
    903    920    926     1   109.5000469 418.400000
    900    903    905     1   109.5000469 418.400000
    900    903    920     1   109.5000469 334.720000
    899    900    903     1   109.5000469 418.400000
    898    896    899     1   108.2300464 836.800000
    897    896    898     1   119.9000514 1171.520000
    897    896    899     1   108.2300464 836.800000
    896    899    900     1   120.5000516 836.800000
    959    960    961     1   108.2300464 836.800000
    959    960    962     1   108.2300464 836.800000
    959    960    963     1   102.6000440 376.560000
    955    953    959     1   109.5000469 418.400000
    953    955    957     1   109.5000469 418.400000
    953    959    960     1   120.5000516 836.800000
    949    951    952     1   111.0000476 585.760000
    948    949    951     1   129.1000553 585.760000
    945    944    948     1   119.3000511 585.760000
    944    943    952     1   117.3000503 527.184000
    944    948    949     1   118.6000508 585.760000
    943    944    945     1   123.5000529 585.760000
    943    944    948     1   117.3000503 585.760000
    943    952    951     1   127.7000547 585.760000
    942    943    944     1   132.4000567 585.760000
    942    943    952     1   110.4000473 585.760000
    940    939    952     1   105.4000452 585.760000
    940    942    943     1   103.8000445 585.760000
    939    937    955     1   109.5000469 418.400000
    939    940    942     1   113.9000488 585.760000
    939    952    943     1   106.2000455 585.760000
    939    952    951     1   126.2000541 585.760000
    937    939    940     1   128.8000552 585.760000
    937    939    952     1   125.8000539 585.760000
    937    955    953     1   109.5000469 334.720000
    937    955    957     1   109.5000469 418.400000
    936    934    953     1   109.5000469 418.400000
    936    937    939     1   109.5000469 418.400000
    936    937    955     1   109.5000469 418.400000
    934    936    937     1   109.5000469 502.080000
    934    953    955     1   109.5000469 334.720000
    934    953    959     1   109.5000469 418.400000
    931    934    936     1   109.5000469 418.400000
    931    934    953     1   109.5000469 334.720000
    930    931    934     1   109.5000469 418.400000
    929    927    930     1   108.2300464 836.800000
    928    927    929     1   119.9000514 1171.520000
    928    927    930     1   108.2300464 836.800000
    927    930    931     1   120.5000516 836.800000
    993    994    995     1   108.2300464 836.800000
    993    994    996     1   108.2300464 836.800000
    993    994    997     1   102.6000440 376.560000
    989    987    993     1   109.5000469 418.400000
    987    989    991     1   109.5000469 418.400000
    987    993    994     1   120.5000516 836.800000
    982    981    985     1   119.3000511 585.760000
    981    985    986     1   112.2000481 585.760000
    979    981    982     1   116.0000497 585.760000
    979    981    985     1   123.3000528 585.760000
    978    977    979     1   120.6000517 669.440000
    977    976    986     1   119.2000511 527.184000
    977    979    981     1   125.2000537 585.760000
    976    977    978     1   128.8000552 669.440000
    976    977    979     1   111.3000477 585.760000
    976    986    985     1   127.7000547 585.760000
    975    976    977     1   130.0000557 585.760000
    975    976    986     1   110.4000473 585.760000
    973    972    986     1   105.4000452 585.760000
    973    975    976     1   103.8000445 585.760000
    972    970    989     1   109.5000469 418.400000
    972    973    975     1   113.9000488 585.760000
    972    986    976     1   106.2000455 585.760000
    972    986    985     1   126.2000541 585.760000
    970    972    973     1   128.8000552 585.760000
    970    972    986     1   125.8000539 585.760000
    970    989    987     1   109.5000469 334.720000
    970    989    991     1   109.5000469 418.400000
    969    967    987     1   109.5000469 418.400000
    969    970    972     1   109.5000469 418.400000
    969    970    989     1   109.5000469 418.400000
    967    969    970     1   109.5000469 502.080000
    967    987    989     1   109.5000469 334.720000
    967    987    993     1   109.5000469 418.400000
    964    967    969     1   109.5000469 418.400000
    964    967    987     1   109.5000469 334.720000
    963    964    967     1   109.5000469 418.400000
    962    960    963     1   108.2300464 836.800000
    961    960    962     1   119.9000514 1171.520000
    961    960    963     1   108.2300464 836.800000
    960    963    964     1   120.5000516 836.800000
   1024   1025   1026     1   108.2300464 836.800000
   1024   1025   1027     1   108.2300464 836.800000
   1024   1025   1028     1   102.6000440 376.560000
   1020   1018   1024     1   109.5000469 418.400000
   1018   1020   1022     1   109.5000469 418.400000
   1018   1024   1025     1   120.5000516 836.800000
   1015   1016   1017     1   122.5000525 669.440000
   1012   1011   1015     1   119.3000511 585.760000
   1011   1015   1016     1   120.5000516 585.760000
   1009   1011   1012     1   120.1000515 585.760000
   1009   1011   1015     1   121.5000521 585.760000
   1007   1006   1016     1   121.6000521 585.760000
   1007   1009   1011     1   117.0000501 527.184000
   1006   1004   1020     1   109.5000469 418.400000
   1006   1007   1009     1   121.2000519 585.760000
   1006   1016   1015     1   118.6000508 585.760000
   1006   1016   1017     1   120.9000518 669.440000
   1004   1006   1007     1   121.2000519 585.760000
   1004   1006   1016     1   117.6000504 585.760000
   1004   1020   1018     1   109.5000469 334.720000
   1004   1020   1022     1   109.5000469 418.400000
   1003   1001   1018     1   109.5000469 418.400000
   1003   1004   1006     1   109.5000469 418.400000
   1003   1004   1020     1   109.5000469 418.400000
   1001   1003   1004     1   109.5000469 502.080000
   1001   1018   1020     1   109.5000469 334.720000
   1001   1018   1024     1   109.5000469 418.400000
    998   1001   1003     1   109.5000469 418.400000
    998   1001   1018     1   109.5000469 334.720000
    997    998   1001     1   109.5000469 418.400000
    996    994    997     1   108.2300464 836.800000
    995    994    996     1   119.9000514 1171.520000
    995    994    997     1   108.2300464 836.800000
    994    997    998     1   120.5000516 836.800000
   1055   1056   1057     1   108.2300464 836.800000
   1055   1056   1058     1   108.2300464 836.800000
   1055   1056   1059     1   102.6000440 376.560000
   1051   1049   1055     1   109.5000469 418.400000
   1049   1051   1053     1   109.5000469 418.400000
   1049   1055   1056     1   120.5000516 836.800000
   1046   1047   1048     1   122.5000525 669.440000
   1043   1042   1046     1   119.3000511 585.760000
   1042   1046   1047     1   120.5000516 585.760000
   1040   1042   1043     1   120.1000515 585.760000
   1040   1042   1046     1   121.5000521 585.760000
   1038   1037   1047     1   121.6000521 585.760000
   1038   1040   1042     1   117.0000501 527.184000
   1037   1035   1051     1   109.5000469 418.400000
   1037   1038   1040     1   121.2000519 585.760000
   1037   1047   1046     1   118.6000508 585.760000
   1037   1047   1048     1   120.9000518 669.440000
   1035   1037   1038     1   121.2000519 585.760000
   1035   1037   1047     1   117.6000504 585.760000
   1035   1051   1049     1   109.5000469 334.720000
   1035   1051   1053     1   109.5000469 418.400000
   1034   1032   1049     1   109.5000469 418.400000
   1034   1035   1037     1   109.5000469 418.400000
   1034   1035   1051     1   109.5000469 418.400000
   1032   1034   1035     1   109.5000469 502.080000
   1032   1049   1051     1   109.5000469 334.720000
   1032   1049   1055     1   109.5000469 418.400000
   1029   1032   1034     1   109.5000469 418.400000
   1029   1032   1049     1   109.5000469 334.720000
   1028   1029   1032     1   109.5000469 418.400000
   1027   1025   1028     1   108.2300464 836.800000
   1026   1025   1027     1   119.9000514 1171.520000
   1026   1025   1028     1   108.2300464 836.800000
   1025   1028   1029     1   120.5000516 836.800000
   1086   1087   1088     1   108.2300464 836.800000
   1086   1087   1089     1   108.2300464 836.800000
   1086   1087   1090     1   102.6000440 376.560000
   1082   1080   1086     1   109.5000469 418.400000
   1080   1082   1084     1   109.5000469 418.400000
   1080   1086   1087     1   120.5000516 836.800000
   1077   1078   1079     1   122.5000525 669.440000
   1074   1073   1077     1   119.3000511 585.760000
   1073   1077   1078     1   120.5000516 585.760000
   1071   1073   1074     1   120.1000515 585.760000
   1071   1073   1077     1   121.5000521 585.760000
   1069   1068   1078     1   121.6000521 585.760000
   1069   1071   1073     1   117.0000501 527.184000
   1068   1066   1082     1   109.5000469 418.400000
   1068   1069   1071     1   121.2000519 585.760000
   1068   1078   1077     1   118.6000508 585.760000
   1068   1078   1079     1   120.9000518 669.440000
   1066   1068   1069     1   121.2000519 585.760000
   1066   1068   1078     1   117.6000504 585.760000
   1066   1082   1080     1   109.5000469 334.720000
   1066   1082   1084     1   109.5000469 418.400000
   1065   1063   1080     1   109.5000469 418.400000
   1065   1066   1068     1   109.5000469 418.400000
   1065   1066   1082     1   109.5000469 418.400000
   1063   1065   1066     1   109.5000469 502.080000
   1063   1080   1082     1   109.5000469 334.720000
   1063   1080   1086     1   109.5000469 418.400000
   1060   1063   1065     1   109.5000469 418.400000
   1060   1063   1080     1   109.5000469 334.720000
   1059   1060   1063     1   109.5000469 418.400000
   1058   1056   1059     1   108.2300464 836.800000
   1057   1056   1058     1   119.9000514 1171.520000
   1057   1056   1059     1   108.2300464 836.800000
   1056   1059   1060     1   120.5000516 836.800000
   1120   1121   1122     1   108.2300464 836.800000
   1120   1121   1123     1   108.2300464 836.800000
   1120   1121   1124     1   102.6000440 376.560000
   1116   1114   1120     1   109.5000469 418.400000
   1114   1116   1118     1   109.5000469 418.400000
   1114   1120   1121     1   120.5000516 836.800000
   1109   1108   1112     1   119.3000511 585.760000
   1108   1112   1113     1   112.2000481 585.760000
   1106   1108   1109     1   116.0000497 585.760000
   1106   1108   1112     1   123.3000528 585.760000
   1105   1104   1106     1   120.6000517 669.440000
   1104   1103   1113     1   119.2000511 527.184000
   1104   1106   1108     1   125.2000537 585.760000
   1103   1104   1105     1   128.8000552 669.440000
   1103   1104   1106     1   111.3000477 585.760000
   1103   1113   1112     1   127.7000547 585.760000
   1102   1103   1104     1   130.0000557 585.760000
   1102   1103   1113     1   110.4000473 585.760000
   1100   1099   1113     1   105.4000452 585.760000
   1100   1102   1103     1   103.8000445 585.760000
   1099   1097   1116     1   109.5000469 418.400000
   1099   1100   1102     1   113.9000488 585.760000
   1099   1113   1103     1   106.2000455 585.760000
   1099   1113   1112     1   126.2000541 585.760000
   1097   1099   1100     1   128.8000552 585.760000
   1097   1099   1113     1   125.8000539 585.760000
   1097   1116   1114     1   109.5000469 334.720000
   1097   1116   1118     1   109.5000469 418.400000
   1096   1094   1114     1   109.5000469 418.400000
   1096   1097   1099     1   109.5000469 418.400000
   1096   1097   1116     1   109.5000469 418.400000
   1094   1096   1097     1   109.5000469 502.080000
   1094   1114   1116     1   109.5000469 334.720000
   1094   1114   1120     1   109.5000469 418.400000
   1091   1094   1096     1   109.5000469 418.400000
   1091   1094   1114     1   109.5000469 334.720000
   1090   1091   1094     1   109.5000469 418.400000
   1089   1087   1090     1   108.2300464 836.800000
   1088   1087   1089     1   119.9000514 1171.520000
   1088   1087   1090     1   108.2300464 836.800000
   1087   1090   1091     1   120.5000516 836.800000
   1150   1151   1152     1   108.2300464 836.800000
   1150   1151   1153     1   108.2300464 836.800000
   1150   1151   1154     1   102.6000440 376.560000
   1146   1144   1150     1   109.5000469 418.400000
   1144   1146   1148     1   109.5000469 418.400000
   1144   1150   1151     1   120.5000516 836.800000
   1140   1142   1143     1   120.6000517 669.440000
   1139   1138   1140     1   120.6000517 669.440000
   1138   1140   1142     1   126.4000542 585.760000
   1136   1138   1139     1   125.3000537 669.440000
   1136   1138   1140     1   114.1000489 585.760000
   1134   1133   1142     1   121.6000521 585.760000
   1134   1136   1138     1   120.7000517 527.184000
   1133   1131   1146     1   109.5000469 418.400000
   1133   1134   1136     1   121.2000519 585.760000
   1133   1142   1140     1   115.4000495 585.760000
   1133   1142   1143     1   120.9000518 669.440000
   1131   1133   1134     1   121.2000519 585.760000
   1131   1133   1142     1   117.6000504 585.760000
   1131   1146   1144     1   109.5000469 334.720000
   1131   1146   1148     1   109.5000469 418.400000
   1130   1128   1144     1   109.5000469 418.400000
   1130   1131   1133     1   109.5000469 418.400000
   1130   1131   1146     1   109.5000469 418.400000
   1128   1130   1131     1   109.5000469 502.080000
   1128   1144   1146     1   109.5000469 334.720000
   1128   1144   1150     1   109.5000469 418.400000
   1125   1128   1130     1   109.5000469 418.400000
   1125   1128   1144     1   109.5000469 334.720000
   1124   1125   1128     1   109.5000469 418.400000
   1123   1121   1124     1   108.2300464 836.800000
   1122   1121   1123     1   119.9000514 1171.520000
   1122   1121   1124     1   108.2300464 836.800000
   1121   1124   1125     1   120.5000516 836.800000
   1181   1182   1183     1   108.2300464 836.800000
   1181   1182   1184     1   108.2300464 836.800000
   1181   1182   1185     1   102.6000440 376.560000
   1177   1175   1181     1   109.5000469 418.400000
   1175   1177   1179     1   109.5000469 418.400000
   1175   1181   1182     1   120.5000516 836.800000
   1172   1173   1174     1   122.5000525 669.440000
   1169   1168   1172     1   119.3000511 585.760000
   1168   1172   1173     1   120.5000516 585.760000
   1166   1168   1169     1   120.1000515 585.760000
   1166   1168   1172     1   121.5000521 585.760000
   1164   1163   1173     1   121.6000521 585.760000
   1164   1166   1168     1   117.0000501 527.184000
   1163   1161   1177     1   109.5000469 418.400000
   1163   1164   1166     1   121.2000519 585.760000
   1163   1173   1172     1   118.6000508 585.760000
   1163   1173   1174     1   120.9000518 669.440000
   1161   1163   1164     1   121.2000519 585.760000
   1161   1163   1173     1   117.6000504 585.760000
   1161   1177   1175     1   109.5000469 334.720000
   1161   1177   1179     1   109.5000469 418.400000
   1160   1158   1175     1   109.5000469 418.400000
   1160   1161   1163     1   109.5000469 418.400000
   1160   1161   1177     1   109.5000469 418.400000
   1158   1160   1161     1   109.5000469 502.080000
   1158   1175   1177     1   109.5000469 334.720000
   1158   1175   1181     1   109.5000469 418.400000
   1155   1158   1160     1   109.5000469 418.400000
   1155   1158   1175     1   109.5000469 334.720000
   1154   1155   1158     1   109.5000469 418.400000
   1153   1151   1154     1   108.2300464 836.800000
   1152   1151   1153     1   119.9000514 1171.520000
   1152   1151   1154     1   108.2300464 836.800000
   1151   1154   1155     1   120.5000516 836.800000
   1211   1212   1213     1   108.2300464 836.800000
   1211   1212   1214     1   108.2300464 836.800000
   1211   1212   1215     1   102.6000440 376.560000
   1207   1205   1211     1   109.5000469 418.400000
   1205   1207   1209     1   109.5000469 418.400000
   1205   1211   1212     1   120.5000516 836.800000
   1201   1203   1204     1   120.6000517 669.440000
   1200   1199   1201     1   120.6000517 669.440000
   1199   1201   1203     1   126.4000542 585.760000
   1197   1199   1200     1   125.3000537 669.440000
   1197   1199   1201     1   114.1000489 585.760000
   1195   1194   1203     1   121.6000521 585.760000
   1195   1197   1199     1   120.7000517 527.184000
   1194   1192   1207     1   109.5000469 418.400000
   1194   1195   1197     1   121.2000519 585.760000
   1194   1203   1201     1   115.4000495 585.760000
   1194   1203   1204     1   120.9000518 669.440000
   1192   1194   1195     1   121.2000519 585.760000
   1192   1194   1203     1   117.6000504 585.760000
   1192   1207   1205     1   109.5000469 334.720000
   1192   1207   1209     1   109.5000469 418.400000
   1191   1189   1205     1   109.5000469 418.400000
   1191   1192   1194     1   109.5000469 418.400000
   1191   1192   1207     1   109.5000469 418.400000
   1189   1191   1192     1   109.5000469 502.080000
   1189   1205   1207     1   109.5000469 334.720000
   1189   1205   1211     1   109.5000469 418.400000
   1186   1189   1191     1   109.5000469 418.400000
   1186   1189   1205     1   109.5000469 334.720000
   1185   1186   1189     1   109.5000469 418.400000
   1184   1182   1185     1   108.2300464 836.800000
   1183   1182   1184     1   119.9000514 1171.520000
   1183   1182   1185     1   108.2300464 836.800000
   1182   1185   1186     1   120.5000516 836.800000
   1241   1242   1243     1   108.2300464 836.800000
   1241   1242   1244     1   108.2300464 836.800000
   1241   1242   1245     1   102.6000440 376.560000
   1237   1235   1241     1   109.5000469 418.400000
   1235   1237   1239     1   109.5000469 418.400000
   1235   1241   1242     1   120.5000516 836.800000
   1231   1233   1234     1   120.6000517 669.440000
   1230   1229   1231     1   120.6000517 669.440000
   1229   1231   1233     1   126.4000542 585.760000
   1227   1229   1230     1   125.3000537 669.440000
   1227   1229   1231     1   114.1000489 585.760000
   1225   1224   1233     1   121.6000521 585.760000
   1225   1227   1229     1   120.7000517 527.184000
   1224   1222   1237     1   109.5000469 418.400000
   1224   1225   1227     1   121.2000519 585.760000
   1224   1233   1231     1   115.4000495 585.760000
   1224   1233   1234     1   120.9000518 669.440000
   1222   1224   1225     1   121.2000519 585.760000
   1222   1224   1233     1   117.6000504 585.760000
   1222   1237   1235     1   109.5000469 334.720000
   1222   1237   1239     1   109.5000469 418.400000
   1221   1219   1235     1   109.5000469 418.400000
   1221   1222   1224     1   109.5000469 418.400000
   1221   1222   1237     1   109.5000469 418.400000
   1219   1221   1222     1   109.5000469 502.080000
   1219   1235   1237     1   109.5000469 334.720000
   1219   1235   1241     1   109.5000469 418.400000
   1216   1219   1221     1   109.5000469 418.400000
   1216   1219   1235     1   109.5000469 334.720000
   1215   1216   1219     1   109.5000469 418.400000
   1214   1212   1215     1   108.2300464 836.800000
   1213   1212   1214     1   119.9000514 1171.520000
   1213   1212   1215     1   108.2300464 836.800000
   1212   1215   1216     1   120.5000516 836.800000
   1274   1275   1276     1   108.2300464 836.800000
   1274   1275   1277     1   108.2300464 836.800000
   1274   1275   1278     1   102.6000440 376.560000
   1270   1268   1274     1   109.5000469 418.400000
   1268   1270   1272     1   109.5000469 418.400000
   1268   1274   1275     1   120.5000516 836.800000
   1264   1266   1267     1   111.0000476 585.760000
   1263   1264   1266     1   129.1000553 585.760000
   1260   1259   1263     1   119.3000511 585.760000
   1259   1258   1267     1   117.3000503 527.184000
   1259   1263   1264     1   118.6000508 585.760000
   1258   1259   1260     1   123.5000529 585.760000
   1258   1259   1263     1   117.3000503 585.760000
   1258   1267   1266     1   127.7000547 585.760000
   1257   1258   1259     1   132.4000567 585.760000
   1257   1258   1267     1   110.4000473 585.760000
   1255   1254   1267     1   105.4000452 585.760000
   1255   1257   1258     1   103.8000445 585.760000
   1254   1252   1270     1   109.5000469 418.400000
   1254   1255   1257     1   113.9000488 585.760000
   1254   1267   1258     1   106.2000455 585.760000
   1254   1267   1266     1   126.2000541 585.760000
   1252   1254   1255     1   128.8000552 585.760000
   1252   1254   1267     1   125.8000539 585.760000
   1252   1270   1268     1   109.5000469 334.720000
   1252   1270   1272     1   109.5000469 418.400000
   1251   1249   1268     1   109.5000469 418.400000
   1251   1252   1254     1   109.5000469 418.400000
   1251   1252   1270     1   109.5000469 418.400000
   1249   1251   1252     1   109.5000469 502.080000
   1249   1268   1270     1   109.5000469 334.720000
   1249   1268   1274     1   109.5000469 418.400000
   1246   1249   1251     1   109.5000469 418.400000
   1246   1249   1268     1   109.5000469 334.720000
   1245   1246   1249     1   109.5000469 418.400000
   1244   1242   1245     1   108.2300464 836.800000
   1243   1242   1244     1   119.9000514 1171.520000
   1243   1242   1245     1   108.2300464 836.800000
   1242   1245   1246     1   120.5000516 836.800000
   1305   1306   1307     1   108.2300464 836.800000
   1305   1306   1308     1   108.2300464 836.800000
   1305   1306   1309     1   102.6000440 376.560000
   1301   1299   1305     1   109.5000469 418.400000
   1299   1301   1303     1   109.5000469 418.400000
   1299   1305   1306     1   120.5000516 836.800000
   1296   1297   1298     1   122.5000525 669.440000
   1293   1292   1296     1   119.3000511 585.760000
   1292   1296   1297     1   120.5000516 585.760000
   1290   1292   1293     1   120.1000515 585.760000
   1290   1292   1296     1   121.5000521 585.760000
   1288   1287   1297     1   121.6000521 585.760000
   1288   1290   1292     1   117.0000501 527.184000
   1287   1285   1301     1   109.5000469 418.400000
   1287   1288   1290     1   121.2000519 585.760000
   1287   1297   1296     1   118.6000508 585.760000
   1287   1297   1298     1   120.9000518 669.440000
   1285   1287   1288     1   121.2000519 585.760000
   1285   1287   1297     1   117.6000504 585.760000
   1285   1301   1299     1   109.5000469 334.720000
   1285   1301   1303     1   109.5000469 418.400000
   1284   1282   1299     1   109.5000469 418.400000
   1284   1285   1287     1   109.5000469 418.400000
   1284   1285   1301     1   109.5000469 418.400000
   1282   1284   1285     1   109.5000469 502.080000
   1282   1299   1301     1   109.5000469 334.720000
   1282   1299   1305     1   109.5000469 418.400000
   1279   1282   1284     1   109.5000469 418.400000
   1279   1282   1299     1   109.5000469 334.720000
   1278   1279   1282     1   109.5000469 418.400000
   1277   1275   1278     1   108.2300464 836.800000
   1276   1275   1277     1   119.9000514 1171.520000
   1276   1275   1278     1   108.2300464 836.800000
   1275   1278   1279     1   120.5000516 836.800000
   1338   1339   1340     1   108.2300464 836.800000
   1338   1339   1341     1   108.2300464 836.800000
   1338   1339   1342     1   102.6000440 376.560000
   1334   1332   1338     1   109.5000469 418.400000
   1332   1334   1336     1   109.5000469 418.400000
   1332   1338   1339     1   120.5000516 836.800000
   1328   1330   1331     1   111.0000476 585.760000
   1327   1328   1330     1   129.1000553 585.760000
   1324   1323   1327     1   119.3000511 585.760000
   1323   1322   1331     1   117.3000503 527.184000
   1323   1327   1328     1   118.6000508 585.760000
   1322   1323   1324     1   123.5000529 585.760000
   1322   1323   1327     1   117.3000503 585.760000
   1322   1331   1330     1   127.7000547 585.760000
   1321   1322   1323     1   132.4000567 585.760000
   1321   1322   1331     1   110.4000473 585.760000
   1319   1318   1331     1   105.4000452 585.760000
   1319   1321   1322     1   103.8000445 585.760000
   1318   1316   1334     1   109.5000469 418.400000
   1318   1319   1321     1   113.9000488 585.760000
   1318   1331   1322     1   106.2000455 585.760000
   1318   1331   1330     1   126.2000541 585.760000
   1316   1318   1319     1   128.8000552 585.760000
   1316   1318   1331     1   125.8000539 585.760000
   1316   1334   1332     1   109.5000469 334.720000
   1316   1334   1336     1   109.5000469 418.400000
   1315   1313   1332     1   109.5000469 418.400000
   1315   1316   1318     1   109.5000469 418.400000
   1315   1316   1334     1   109.5000469 418.400000
   1313   1315   1316     1   109.5000469 502.080000
   1313   1332   1334     1   109.5000469 334.720000
   1313   1332   1338     1   109.5000469 418.400000
   1310   1313   1315     1   109.5000469 418.400000
   1310   1313   1332     1   109.5000469 334.720000
   1309   1310   1313     1   109.5000469 418.400000
   1308   1306   1309     1   108.2300464 836.800000
   1307   1306   1308     1   119.9000514 1171.520000
   1307   1306   1309     1   108.2300464 836.800000
   1306   1309   1310     1   120.5000516 836.800000
   1369   1370   1371     1   108.2300464 836.800000
   1369   1370   1372     1   108.2300464 836.800000
   1369   1370   1373     1   102.6000440 376.560000
   1365   1363   1369     1   109.5000469 418.400000
   1363   1365   1367     1   109.5000469 418.400000
   1363   1369   1370     1   120.5000516 836.800000
   1360   1361   1362     1   122.5000525 669.440000
   1357   1356   1360     1   119.3000511 585.760000
   1356   1360   1361     1   120.5000516 585.760000
   1354   1356   1357     1   120.1000515 585.760000
   1354   1356   1360     1   121.5000521 585.760000
   1352   1351   1361     1   121.6000521 585.760000
   1352   1354   1356     1   117.0000501 527.184000
   1351   1349   1365     1   109.5000469 418.400000
   1351   1352   1354     1   121.2000519 585.760000
   1351   1361   1360     1   118.6000508 585.760000
   1351   1361   1362     1   120.9000518 669.440000
   1349   1351   1352     1   121.2000519 585.760000
   1349   1351   1361     1   117.6000504 585.760000
   1349   1365   1363     1   109.5000469 334.720000
   1349   1365   1367     1   109.5000469 418.400000
   1348   1346   1363     1   109.5000469 418.400000
   1348   1349   1351     1   109.5000469 418.400000
   1348   1349   1365     1   109.5000469 418.400000
   1346   1348   1349     1   109.5000469 502.080000
   1346   1363   1365     1   109.5000469 334.720000
   1346   1363   1369     1   109.5000469 418.400000
   1343   1346   1348     1   109.5000469 418.400000
   1343   1346   1363     1   109.5000469 334.720000
   1342   1343   1346     1   109.5000469 418.400000
   1341   1339   1342     1   108.2300464 836.800000
   1340   1339   1341     1   119.9000514 1171.520000
   1340   1339   1342     1   108.2300464 836.800000
   1339   1342   1343     1   120.5000516 836.800000
   1400   1401   1402     1   108.2300464 836.800000
   1400   1401   1403     1   108.2300464 836.800000
   1400   1401   1404     1   102.6000440 376.560000
   1396   1394   1400     1   109.5000469 418.400000
   1394   1396   1398     1   109.5000469 418.400000
   1394   1400   1401     1   120.5000516 836.800000
   1391   1392   1393     1   122.5000525 669.440000
   1388   1387   1391     1   119.3000511 585.760000
   1387   1391   1392     1   120.5000516 585.760000
   1385   1387   1388     1   120.1000515 585.760000
   1385   1387   1391     1   121.5000521 585.760000
   1383   1382   1392     1   121.6000521 585.760000
   1383   1385   1387     1   117.0000501 527.184000
   1382   1380   1396     1   109.5000469 418.400000
   1382   1383   1385     1   121.2000519 585.760000
   1382   1392   1391     1   118.6000508 585.760000
   1382   1392   1393     1   120.9000518 669.440000
   1380   1382   1383     1   121.2000519 585.760000
   1380   1382   1392     1   117.6000504 585.760000
   1380   1396   1394     1   109.5000469 334.720000
   1380   1396   1398     1   109.5000469 418.400000
   1379   1377   1394     1   109.5000469 418.400000
   1379   1380   1382     1   109.5000469 418.400000
   1379   1380   1396     1   109.5000469 418.400000
   1377   1379   1380     1   109.5000469 502.080000
   1377   1394   1396     1   109.5000469 334.720000
   1377   1394   1400     1   109.5000469 418.400000
   1374   1377   1379     1   109.5000469 418.400000
   1374   1377   1394     1   109.5000469 334.720000
   1373   1374   1377     1   109.5000469 418.400000
   1372   1370   1373     1   108.2300464 836.800000
   1371   1370   1372     1   119.9000514 1171.520000
   1371   1370   1373     1   108.2300464 836.800000
   1370   1373   1374     1   120.5000516 836.800000
   1434   1435   1436     1   108.2300464 836.800000
   1434   1435   1437     1   108.2300464 836.800000
   1434   1435   1438     1   102.6000440 376.560000
   1430   1428   1434     1   109.5000469 418.400000
   1428   1430   1432     1   109.5000469 418.400000
   1428   1434   1435     1   120.5000516 836.800000
   1423   1422   1426     1   119.3000511 585.760000
   1422   1426   1427     1   112.2000481 585.760000
   1420   1422   1423     1   116.0000497 585.760000
   1420   1422   1426     1   123.3000528 585.760000
   1419   1418   1420     1   120.6000517 669.440000
   1418   1417   1427     1   119.2000511 527.184000
   1418   1420   1422     1   125.2000537 585.760000
   1417   1418   1419     1   128.8000552 669.440000
   1417   1418   1420     1   111.3000477 585.760000
   1417   1427   1426     1   127.7000547 585.760000
   1416   1417   1418     1   130.0000557 585.760000
   1416   1417   1427     1   110.4000473 585.760000
   1414   1413   1427     1   105.4000452 585.760000
   1414   1416   1417     1   103.8000445 585.760000
   1413   1411   1430     1   109.5000469 418.400000
   1413   1414   1416     1   113.9000488 585.760000
   1413   1427   1417     1   106.2000455 585.760000
   1413   1427   1426     1   126.2000541 585.760000
   1411   1413   1414     1   128.8000552 585.760000
   1411   1413   1427     1   125.8000539 585.760000
   1411   1430   1428     1   109.5000469 334.720000
   1411   1430   1432     1   109.5000469 418.400000
   1410   1408   1428     1   109.5000469 418.400000
   1410   1411   1413     1   109.5000469 418.400000
   1410   1411   1430     1   109.5000469 418.400000
   1408   1410   1411     1   109.5000469 502.080000
   1408   1428   1430     1   109.5000469 334.720000
   1408   1428   1434     1   109.5000469 418.400000
   1405   1408   1410     1   109.5000469 418.400000
   1405   1408   1428     1   109.5000469 334.720000
   1404   1405   1408     1   109.5000469 418.400000
   1403   1401   1404     1   108.2300464 836.800000
   1402   1401   1403     1   119.9000514 1171.520000
   1402   1401   1404     1   108.2300464 836.800000
   1401   1404   1405     1   120.5000516 836.800000
   1464   1465   1466     1   108.2300464 836.800000
   1464   1465   1467     1   108.2300464 836.800000
   1464   1465   1468     1   102.6000440 376.560000
   1460   1458   1464     1   109.5000469 418.400000
   1458   1460   1462     1   109.5000469 418.400000
   1458   1464   1465     1   120.5000516 836.800000
   1454   1456   1457     1   120.6000517 669.440000
   1453   1452   1454     1   120.6000517 669.440000
   1452   1454   1456     1   126.4000542 585.760000
   1450   1452   1453     1   125.3000537 669.440000
   1450   1452   1454     1   114.1000489 585.760000
   1448   1447   1456     1   121.6000521 585.760000
   1448   1450   1452     1   120.7000517 527.184000
   1447   1445   1460     1   109.5000469 418.400000
   1447   1448   1450     1   121.2000519 585.760000
   1447   1456   1454     1   115.4000495 585.760000
   1447   1456   1457     1   120.9000518 669.440000
   1445   1447   1448     1   121.2000519 585.760000
   1445   1447   1456     1   117.6000504 585.760000
   1445   1460   1458     1   109.5000469 334.720000
   1445   1460   1462     1   109.5000469 418.400000
   1444   1442   1458     1   109.5000469 418.400000
   1444   1445   1447     1   109.5000469 418.400000
   1444   1445   1460     1   109.5000469 418.400000
   1442   1444   1445     1   109.5000469 502.080000
   1442   1458   1460     1   109.5000469 334.720000
   1442   1458   1464     1   109.5000469 418.400000
   1439   1442   1444     1   109.5000469 418.400000
   1439   1442   1458     1   109.5000469 334.720000
   1438   1439   1442     1   109.5000469 418.400000
   1437   1435   1438     1   108.2300464 836.800000
   1436   1435   1437     1   119.9000514 1171.520000
   1436   1435   1438     1   108.2300464 836.800000
   1435   1438   1439     1   120.5000516 836.800000
   1498   1499   1500     1   108.2300464 836.800000
   1498   1499   1501     1   108.2300464 836.800000
   1498   1499   1502     1   102.6000440 376.560000
   1494   1492   1498     1   109.5000469 418.400000
   1492   1494   1496     1   109.5000469 418.400000
   1492   1498   1499     1   120.5000516 836.800000
   1487   1486   1490     1   119.3000511 585.760000
   1486   1490   1491     1   112.2000481 585.760000
   1484   1486   1487     1   116.0000497 585.760000
   1484   1486   1490     1   123.3000528 585.760000
   1483   1482   1484     1   120.6000517 669.440000
   1482   1481   1491     1   119.2000511 527.184000
   1482   1484   1486     1   125.2000537 585.760000
   1481   1482   1483     1   128.8000552 669.440000
   1481   1482   1484     1   111.3000477 585.760000
   1481   1491   1490     1   127.7000547 585.760000
   1480   1481   1482     1   130.0000557 585.760000
   1480   1481   1491     1   110.4000473 585.760000
   1478   1477   1491     1   105.4000452 585.760000
   1478   1480   1481     1   103.8000445 585.760000
   1477   1475   1494     1   109.5000469 418.400000
   1477   1478   1480     1   113.9000488 585.760000
   1477   1491   1481     1   106.2000455 585.760000
   1477   1491   1490     1   126.2000541 585.760000
   1475   1477   1478     1   128.8000552 585.760000
   1475   1477   1491     1   125.8000539 585.760000
   1475   1494   1492     1   109.5000469 334.720000
   1475   1494   1496     1   109.5000469 418.400000
   1474   1472   1492     1   109.5000469 418.400000
   1474   1475   1477     1   109.5000469 418.400000
   1474   1475   1494     1   109.5000469 418.400000
   1472   1474   1475     1   109.5000469 502.080000
   1472   1492   1494     1   109.5000469 334.720000
   1472   1492   1498     1   109.5000469 418.400000
   1469   1472   1474     1   109.5000469 418.400000
   1469   1472   1492     1   109.5000469 334.720000
   1468   1469   1472     1   109.5000469 418.400000
   1467   1465   1468     1   108.2300464 836.800000
   1466   1465   1467     1   119.9000514 1171.520000
   1466   1465   1468     1   108.2300464 836.800000
   1465   1468   1469     1   120.5000516 836.800000
   1529   1530   1531     1   108.2300464 836.800000
   1529   1530   1532     1   108.2300464 836.800000
   1529   1530   1533     1   102.6000440 376.560000
   1525   1523   1529     1   109.5000469 418.400000
   1523   1525   1527     1   109.5000469 418.400000
   1523   1529   1530     1   120.5000516 836.800000
   1520   1521   1522     1   122.5000525 669.440000
   1517   1516   1520     1   119.3000511 585.760000
   1516   1520   1521     1   120.5000516 585.760000
   1514   1516   1517     1   120.1000515 585.760000
   1514   1516   1520     1   121.5000521 585.760000
   1512   1511   1521     1   121.6000521 585.760000
   1512   1514   1516     1   117.0000501 527.184000
   1511   1509   1525     1   109.5000469 418.400000
   1511   1512   1514     1   121.2000519 585.760000
   1511   1521   1520     1   118.6000508 585.760000
   1511   1521   1522     1   120.9000518 669.440000
   1509   1511   1512     1   121.2000519 585.760000
   1509   1511   1521     1   117.6000504 585.760000
   1509   1525   1523     1   109.5000469 334.720000
   1509   1525   1527     1   109.5000469 418.400000
   1508   1506   1523     1   109.5000469 418.400000
   1508   1509   1511     1   109.5000469 418.400000
   1508   1509   1525     1   109.5000469 418.400000
   1506   1508   1509     1   109.5000469 502.080000
   1506   1523   1525     1   109.5000469 334.720000
   1506   1523   1529     1   109.5000469 418.400000
   1503   1506   1508     1   109.5000469 418.400000
   1503   1506   1523     1   109.5000469 334.720000
   1502   1503   1506     1   109.5000469 418.400000
   1501   1499   1502     1   108.2300464 836.800000
   1500   1499   1501     1   119.9000514 1171.520000
   1500   1499   1502     1   108.2300464 836.800000
   1499   1502   1503     1   120.5000516 836.800000
   1563   1564   1565     1   108.2300464 836.800000
   1563   1564   1566     1   108.2300464 836.800000
   1563   1564   1567     1   102.6000440 376.560000
   1559   1557   1563     1   109.5000469 418.400000
   1557   1559   1561     1   109.5000469 418.400000
   1557   1563   1564     1   120.5000516 836.800000
   1552   1551   1555     1   119.3000511 585.760000
   1551   1555   1556     1   112.2000481 585.760000
   1549   1551   1552     1   116.0000497 585.760000
   1549   1551   1555     1   123.3000528 585.760000
   1548   1547   1549     1   120.6000517 669.440000
   1547   1546   1556     1   119.2000511 527.184000
   1547   1549   1551     1   125.2000537 585.760000
   1546   1547   1548     1   128.8000552 669.440000
   1546   1547   1549     1   111.3000477 585.760000
   1546   1556   1555     1   127.7000547 585.760000
   1545   1546   1547     1   130.0000557 585.760000
   1545   1546   1556     1   110.4000473 585.760000
   1543   1542   1556     1   105.4000452 585.760000
   1543   1545   1546     1   103.8000445 585.760000
   1542   1540   1559     1   109.5000469 418.400000
   1542   1543   1545     1   113.9000488 585.760000
   1542   1556   1546     1   106.2000455 585.760000
   1542   1556   1555     1   126.2000541 585.760000
   1540   1542   1543     1   128.8000552 585.760000
   1540   1542   1556     1   125.8000539 585.760000
   1540   1559   1557     1   109.5000469 334.720000
   1540   1559   1561     1   109.5000469 418.400000
   1539   1537   1557     1   109.5000469 418.400000
   1539   1540   1542     1   109.5000469 418.400000
   1539   1540   1559     1   109.5000469 418.400000
   1537   1539   1540     1   109.5000469 502.080000
   1537   1557   1559     1   109.5000469 334.720000
   1537   1557   1563     1   109.5000469 418.400000
   1534   1537   1539     1   109.5000469 418.400000
   1534   1537   1557     1   109.5000469 334.720000
   1533   1534   1537     1   109.5000469 418.400000
   1532   1530   1533     1   108.2300464 836.800000
   1531   1530   1532     1   119.9000514 1171.520000
   1531   1530   1533     1   108.2300464 836.800000
   1530   1533   1534     1   120.5000516 836.800000
   1597   1598   1599     1   108.2300464 836.800000
   1597   1598   1600     1   108.2300464 836.800000
   1597   1598   1601     1   102.6000440 376.560000
   1593   1591   1597     1   109.5000469 418.400000
   1591   1593   1595     1   109.5000469 418.400000
   1591   1597   1598     1   120.5000516 836.800000
   1586   1585   1589     1   119.3000511 585.760000
   1585   1589   1590     1   112.2000481 585.760000
   1583   1585   1586     1   116.0000497 585.760000
   1583   1585   1589     1   123.3000528 585.760000
   1582   1581   1583     1   120.6000517 669.440000
   1581   1580   1590     1   119.2000511 527.184000
   1581   1583   1585     1   125.2000537 585.760000
   1580   1581   1582     1   128.8000552 669.440000
   1580   1581   1583     1   111.3000477 585.760000
   1580   1590   1589     1   127.7000547 585.760000
   1579   1580   1581     1   130.0000557 585.760000
   1579   1580   1590     1   110.4000473 585.760000
   1577   1576   1590     1   105.4000452 585.760000
   1577   1579   1580     1   103.8000445 585.760000
   1576   1574   1593     1   109.5000469 418.400000
   1576   1577   1579     1   113.9000488 585.760000
   1576   1590   1580     1   106.2000455 585.760000
   1576   1590   1589     1   126.2000541 585.760000
   1574   1576   1577     1   128.8000552 585.760000
   1574   1576   1590     1   125.8000539 585.760000
   1574   1593   1591     1   109.5000469 334.720000
   1574   1593   1595     1   109.5000469 418.400000
   1573   1571   1591     1   109.5000469 418.400000
   1573   1574   1576     1   109.5000469 418.400000
   1573   1574   1593     1   109.5000469 418.400000
   1571   1573   1574     1   109.5000469 502.080000
   1571   1591   1593     1   109.5000469 334.720000
   1571   1591   1597     1   109.5000469 418.400000
   1568   1571   1573     1   109.5000469 418.400000
   1568   1571   1591     1   109.5000469 334.720000
   1567   1568   1571     1   109.5000469 418.400000
   1566   1564   1567     1   108.2300464 836.800000
   1565   1564   1566     1   119.9000514 1171.520000
   1565   1564   1567     1   108.2300464 836.800000
   1564   1567   1568     1   120.5000516 836.800000
   1628   1629   1630     1   108.2300464 836.800000
   1628   1629   1631     1   108.2300464 836.800000
   1628   1629   1632     1   102.6000440 376.560000
   1624   1622   1628     1   109.5000469 418.400000
   1622   1624   1626     1   109.5000469 418.400000
   1622   1628   1629     1   120.5000516 836.800000
   1619   1620   1621     1   122.5000525 669.440000
   1616   1615   1619     1   119.3000511 585.760000
   1615   1619   1620     1   120.5000516 585.760000
   1613   1615   1616     1   120.1000515 585.760000
   1613   1615   1619     1   121.5000521 585.760000
   1611   1610   1620     1   121.6000521 585.760000
   1611   1613   1615     1   117.0000501 527.184000
   1610   1608   1624     1   109.5000469 418.400000
   1610   1611   1613     1   121.2000519 585.760000
   1610   1620   1619     1   118.6000508 585.760000
   1610   1620   1621     1   120.9000518 669.440000
   1608   1610   1611     1   121.2000519 585.760000
   1608   1610   1620     1   117.6000504 585.760000
   1608   1624   1622     1   109.5000469 334.720000
   1608   1624   1626     1   109.5000469 418.400000
   1607   1605   1622     1   109.5000469 418.400000
   1607   1608   1610     1   109.5000469 418.400000
   1607   1608   1624     1   109.5000469 418.400000
   1605   1607   1608     1   109.5000469 502.080000
   1605   1622   1624     1   109.5000469 334.720000
   1605   1622   1628     1   109.5000469 418.400000
   1602   1605   1607     1   109.5000469 418.400000
   1602   1605   1622     1   109.5000469 334.720000
   1601   1602   1605     1   109.5000469 418.400000
   1600   1598   1601     1   108.2300464 836.800000
   1599   1598   1600     1   119.9000514 1171.520000
   1599   1598   1601     1   108.2300464 836.800000
   1598   1601   1602     1   120.5000516 836.800000
   1661   1662   1663     1   108.2300464 836.800000
   1661   1662   1664     1   108.2300464 836.800000
   1661   1662   1665     1   102.6000440 376.560000
   1657   1655   1661     1   109.5000469 418.400000
   1655   1657   1659     1   109.5000469 418.400000
   1655   1661   1662     1   120.5000516 836.800000
   1651   1653   1654     1   111.0000476 585.760000
   1650   1651   1653     1   129.1000553 585.760000
   1647   1646   1650     1   119.3000511 585.760000
   1646   1645   1654     1   117.3000503 527.184000
   1646   1650   1651     1   118.6000508 585.760000
   1645   1646   1647     1   123.5000529 585.760000
   1645   1646   1650     1   117.3000503 585.760000
   1645   1654   1653     1   127.7000547 585.760000
   1644   1645   1646     1   132.4000567 585.760000
   1644   1645   1654     1   110.4000473 585.760000
   1642   1641   1654     1   105.4000452 585.760000
   1642   1644   1645     1   103.8000445 585.760000
   1641   1639   1657     1   109.5000469 418.400000
   1641   1642   1644     1   113.9000488 585.760000
   1641   1654   1645     1   106.2000455 585.760000
   1641   1654   1653     1   126.2000541 585.760000
   1639   1641   1642     1   128.8000552 585.760000
   1639   1641   1654     1   125.8000539 585.760000
   1639   1657   1655     1   109.5000469 334.720000
   1639   1657   1659     1   109.5000469 418.400000
   1638   1636   1655     1   109.5000469 418.400000
   1638   1639   1641     1   109.5000469 418.400000
   1638   1639   1657     1   109.5000469 418.400000
   1636   1638   1639     1   109.5000469 502.080000
   1636   1655   1657     1   109.5000469 334.720000
   1636   1655   1661     1   109.5000469 418.400000
   1633   1636   1638     1   109.5000469 418.400000
   1633   1636   1655     1   109.5000469 334.720000
   1632   1633   1636     1   109.5000469 418.400000
   1631   1629   1632     1   108.2300464 836.800000
   1630   1629   1631     1   119.9000514 1171.520000
   1630   1629   1632     1   108.2300464 836.800000
   1629   1632   1633     1   120.5000516 836.800000
   1692   1693   1694     1   108.2300464 836.800000
   1692   1693   1695     1   108.2300464 836.800000
   1692   1693   1696     1   102.6000440 376.560000
   1688   1686   1692     1   109.5000469 418.400000
   1686   1688   1690     1   109.5000469 418.400000
   1686   1692   1693     1   120.5000516 836.800000
   1683   1684   1685     1   122.5000525 669.440000
   1680   1679   1683     1   119.3000511 585.760000
   1679   1683   1684     1   120.5000516 585.760000
   1677   1679   1680     1   120.1000515 585.760000
   1677   1679   1683     1   121.5000521 585.760000
   1675   1674   1684     1   121.6000521 585.760000
   1675   1677   1679     1   117.0000501 527.184000
   1674   1672   1688     1   109.5000469 418.400000
   1674   1675   1677     1   121.2000519 585.760000
   1674   1684   1683     1   118.6000508 585.760000
   1674   1684   1685     1   120.9000518 669.440000
   1672   1674   1675     1   121.2000519 585.760000
   1672   1674   1684     1   117.6000504 585.760000
   1672   1688   1686     1   109.5000469 334.720000
   1672   1688   1690     1   109.5000469 418.400000
   1671   1669   1686     1   109.5000469 418.400000
   1671   1672   1674     1   109.5000469 418.400000
   1671   1672   1688     1   109.5000469 418.400000
   1669   1671   1672     1   109.5000469 502.080000
   1669   1686   1688     1   109.5000469 334.720000
   1669   1686   1692     1   109.5000469 418.400000
   1666   1669   1671     1   109.5000469 418.400000
   1666   1669   1686     1   109.5000469 334.720000
   1665   1666   1669     1   109.5000469 418.400000
   1664   1662   1665     1   108.2300464 836.800000
   1663   1662   1664     1   119.9000514 1171.520000
   1663   1662   1665     1   108.2300464 836.800000
   1662   1665   1666     1   120.5000516 836.800000
   1725   1726   1727     1   108.2300464 836.800000
   1725   1726   1728     1   108.2300464 836.800000
   1725   1726   1729     1   102.6000440 376.560000
   1721   1719   1725     1   109.5000469 418.400000
   1719   1721   1723     1   109.5000469 418.400000
   1719   1725   1726     1   120.5000516 836.800000
   1715   1717   1718     1   111.0000476 585.760000
   1714   1715   1717     1   129.1000553 585.760000
   1711   1710   1714     1   119.3000511 585.760000
   1710   1709   1718     1   117.3000503 527.184000
   1710   1714   1715     1   118.6000508 585.760000
   1709   1710   1711     1   123.5000529 585.760000
   1709   1710   1714     1   117.3000503 585.760000
   1709   1718   1717     1   127.7000547 585.760000
   1708   1709   1710     1   132.4000567 585.760000
   1708   1709   1718     1   110.4000473 585.760000
   1706   1705   1718     1   105.4000452 585.760000
   1706   1708   1709     1   103.8000445 585.760000
   1705   1703   1721     1   109.5000469 418.400000
   1705   1706   1708     1   113.9000488 585.760000
   1705   1718   1709     1   106.2000455 585.760000
   1705   1718   1717     1   126.2000541 585.760000
   1703   1705   1706     1   128.8000552 585.760000
   1703   1705   1718     1   125.8000539 585.760000
   1703   1721   1719     1   109.5000469 334.720000
   1703   1721   1723     1   109.5000469 418.400000
   1702   1700   1719     1   109.5000469 418.400000
   1702   1703   1705     1   109.5000469 418.400000
   1702   1703   1721     1   109.5000469 418.400000
   1700   1702   1703     1   109.5000469 502.080000
   1700   1719   1721     1   109.5000469 334.720000
   1700   1719   1725     1   109.5000469 418.400000
   1697   1700   1702     1   109.5000469 418.400000
   1697   1700   1719     1   109.5000469 334.720000
   1696   1697   1700     1   109.5000469 418.400000
   1695   1693   1696     1   108.2300464 836.800000
   1694   1693   1695     1   119.9000514 1171.520000
   1694   1693   1696     1   108.2300464 836.800000
   1693   1696   1697     1   120.5000516 836.800000
   1759   1760   1761     1   108.2300464 836.800000
   1759   1760   1762     1   108.2300464 836.800000
   1759   1760   1763     1   102.6000440 376.560000
   1755   1753   1759     1   109.5000469 418.400000
   1753   1755   1757     1   109.5000469 418.400000
   1753   1759   1760     1   120.5000516 836.800000
   1748   1747   1751     1   119.3000511 585.760000
   1747   1751   1752     1   112.2000481 585.760000
   1745   1747   1748     1   116.0000497 585.760000
   1745   1747   1751     1   123.3000528 585.760000
   1744   1743   1745     1   120.6000517 669.440000
   1743   1742   1752     1   119.2000511 527.184000
   1743   1745   1747     1   125.2000537 585.760000
   1742   1743   1744     1   128.8000552 669.440000
   1742   1743   1745     1   111.3000477 585.760000
   1742   1752   1751     1   127.7000547 585.760000
   1741   1742   1743     1   130.0000557 585.760000
   1741   1742   1752     1   110.4000473 585.760000
   1739   1738   1752     1   105.4000452 585.760000
   1739   1741   1742     1   103.8000445 585.760000
   1738   1736   1755     1   109.5000469 418.400000
   1738   1739   1741     1   113.9000488 585.760000
   1738   1752   1742     1   106.2000455 585.760000
   1738   1752   1751     1   126.2000541 585.760000
   1736   1738   1739     1   128.8000552 585.760000
   1736   1738   1752     1   125.8000539 585.760000
   1736   1755   1753     1   109.5000469 334.720000
   1736   1755   1757     1   109.5000469 418.400000
   1735   1733   1753     1   109.5000469 418.400000
   1735   1736   1738     1   109.5000469 418.400000
   1735   1736   1755     1   109.5000469 418.400000
   1733   1735   1736     1   109.5000469 502.080000
   1733   1753   1755     1   109.5000469 334.720000
   1733   1753   1759     1   109.5000469 418.400000
   1730   1733   1735     1   109.5000469 418.400000
   1730   1733   1753     1   109.5000469 334.720000
   1729   1730   1733     1   109.5000469 418.400000
   1728   1726   1729     1   108.2300464 836.800000
   1727   1726   1728     1   119.9000514 1171.520000
   1727   1726   1729     1   108.2300464 836.800000
   1726   1729   1730     1   120.5000516 836.800000
   1793   1794   1795     1   108.2300464 836.800000
   1793   1794   1796     1   108.2300464 836.800000
   1793   1794   1797     1   102.6000440 376.560000
   1789   1787   1793     1   109.5000469 418.400000
   1787   1789   1791     1   109.5000469 418.400000
   1787   1793   1794     1   120.5000516 836.800000
   1782   1781   1785     1   119.3000511 585.760000
   1781   1785   1786     1   112.2000481 585.760000
   1779   1781   1782     1   116.0000497 585.760000
   1779   1781   1785     1   123.3000528 585.760000
   1778   1777   1779     1   120.6000517 669.440000
   1777   1776   1786     1   119.2000511 527.184000
   1777   1779   1781     1   125.2000537 585.760000
   1776   1777   1778     1   128.8000552 669.440000
   1776   1777   1779     1   111.3000477 585.760000
   1776   1786   1785     1   127.7000547 585.760000
   1775   1776   1777     1   130.0000557 585.760000
   1775   1776   1786     1   110.4000473 585.760000
   1773   1772   1786     1   105.4000452 585.760000
   1773   1775   1776     1   103.8000445 585.760000
   1772   1770   1789     1   109.5000469 418.400000
   1772   1773   1775     1   113.9000488 585.760000
   1772   1786   1776     1   106.2000455 585.760000
   1772   1786   1785     1   126.2000541 585.760000
   1770   1772   1773     1   128.8000552 585.760000
   1770   1772   1786     1   125.8000539 585.760000
   1770   1789   1787     1   109.5000469 334.720000
   1770   1789   1791     1   109.5000469 418.400000
   1769   1767   1787     1   109.5000469 418.400000
   1769   1770   1772     1   109.5000469 418.400000
   1769   1770   1789     1   109.5000469 418.400000
   1767   1769   1770     1   109.5000469 502.080000
   1767   1787   1789     1   109.5000469 334.720000
   1767   1787   1793     1   109.5000469 418.400000
   1764   1767   1769     1   109.5000469 418.400000
   1764   1767   1787     1   109.5000469 334.720000
   1763   1764   1767     1   109.5000469 418.400000
   1762   1760   1763     1   108.2300464 836.800000
   1761   1760   1762     1   119.9000514 1171.520000
   1761   1760   1763     1   108.2300464 836.800000
   1760   1763   1764     1   120.5000516 836.800000
   1824   1825   1826     1   108.2300464 836.800000
   1824   1825   1827     1   108.2300464 836.800000
   1824   1825   1828     1   102.6000440 376.560000
   1820   1818   1824     1   109.5000469 418.400000
   1818   1820   1822     1   109.5000469 418.400000
   1818   1824   1825     1   120.5000516 836.800000
   1815   1816   1817     1   122.5000525 669.440000
   1812   1811   1815     1   119.3000511 585.760000
   1811   1815   1816     1   120.5000516 585.760000
   1809   1811   1812     1   120.1000515 585.760000
   1809   1811   1815     1   121.5000521 585.760000
   1807   1806   1816     1   121.6000521 585.760000
   1807   1809   1811     1   117.0000501 527.184000
   1806   1804   1820     1   109.5000469 418.400000
   1806   1807   1809     1   121.2000519 585.760000
   1806   1816   1815     1   118.6000508 585.760000
   1806   1816   1817     1   120.9000518 669.440000
   1804   1806   1807     1   121.2000519 585.760000
   1804   1806   1816     1   117.6000504 585.760000
   1804   1820   1818     1   109.5000469 334.720000
   1804   1820   1822     1   109.5000469 418.400000
   1803   1801   1818     1   109.5000469 418.400000
   1803   1804   1806     1   109.5000469 418.400000
   1803   1804   1820     1   109.5000469 418.400000
   1801   1803   1804     1   109.5000469 502.080000
   1801   1818   1820     1   109.5000469 334.720000
   1801   1818   1824     1   109.5000469 418.400000
   1798   1801   1803     1   109.5000469 418.400000
   1798   1801   1818     1   109.5000469 334.720000
   1797   1798   1801     1   109.5000469 418.400000
   1796   1794   1797     1   108.2300464 836.800000
   1795   1794   1796     1   119.9000514 1171.520000
   1795   1794   1797     1   108.2300464 836.800000
   1794   1797   1798     1   120.5000516 836.800000
   1857   1858   1859     1   108.2300464 836.800000
   1857   1858   1860     1   108.2300464 836.800000
   1857   1858   1861     1   102.6000440 376.560000
   1853   1851   1857     1   109.5000469 418.400000
   1851   1853   1855     1   109.5000469 418.400000
   1851   1857   1858     1   120.5000516 836.800000
   1847   1849   1850     1   111.0000476 585.760000
   1846   1847   1849     1   129.1000553 585.760000
   1843   1842   1846     1   119.3000511 585.760000
   1842   1841   1850     1   117.3000503 527.184000
   1842   1846   1847     1   118.6000508 585.760000
   1841   1842   1843     1   123.5000529 585.760000
   1841   1842   1846     1   117.3000503 585.760000
   1841   1850   1849     1   127.7000547 585.760000
   1840   1841   1842     1   132.4000567 585.760000
   1840   1841   1850     1   110.4000473 585.760000
   1838   1837   1850     1   105.4000452 585.760000
   1838   1840   1841     1   103.8000445 585.760000
   1837   1835   1853     1   109.5000469 418.400000
   1837   1838   1840     1   113.9000488 585.760000
   1837   1850   1841     1   106.2000455 585.760000
   1837   1850   1849     1   126.2000541 585.760000
   1835   1837   1838     1   128.8000552 585.760000
   1835   1837   1850     1   125.8000539 585.760000
   1835   1853   1851     1   109.5000469 334.720000
   1835   1853   1855     1   109.5000469 418.400000
   1834   1832   1851     1   109.5000469 418.400000
   1834   1835   1837     1   109.5000469 418.400000
   1834   1835   1853     1   109.5000469 418.400000
   1832   1834   1835     1   109.5000469 502.080000
   1832   1851   1853     1   109.5000469 334.720000
   1832   1851   1857     1   109.5000469 418.400000
   1829   1832   1834     1   109.5000469 418.400000
   1829   1832   1851     1   109.5000469 334.720000
   1828   1829   1832     1   109.5000469 418.400000
   1827   1825   1828     1   108.2300464 836.800000
   1826   1825   1827     1   119.9000514 1171.520000
   1826   1825   1828     1   108.2300464 836.800000
   1825   1828   1829     1   120.5000516 836.800000
   1888   1889   1890     1   108.2300464 836.800000
   1888   1889   1891     1   108.2300464 836.800000
   1888   1889   1892     1   102.6000440 376.560000
   1884   1882   1888     1   109.5000469 418.400000
   1882   1884   1886     1   109.5000469 418.400000
   1882   1888   1889     1   120.5000516 836.800000
   1879   1880   1881     1   122.5000525 669.440000
   1876   1875   1879     1   119.3000511 585.760000
   1875   1879   1880     1   120.5000516 585.760000
   1873   1875   1876     1   120.1000515 585.760000
   1873   1875   1879     1   121.5000521 585.760000
   1871   1870   1880     1   121.6000521 585.760000
   1871   1873   1875     1   117.0000501 527.184000
   1870   1868   1884     1   109.5000469 418.400000
   1870   1871   1873     1   121.2000519 585.760000
   1870   1880   1879     1   118.6000508 585.760000
   1870   1880   1881     1   120.9000518 669.440000
   1868   1870   1871     1   121.2000519 585.760000
   1868   1870   1880     1   117.6000504 585.760000
   1868   1884   1882     1   109.5000469 334.720000
   1868   1884   1886     1   109.5000469 418.400000
   1867   1865   1882     1   109.5000469 418.400000
   1867   1868   1870     1   109.5000469 418.400000
   1867   1868   1884     1   109.5000469 418.400000
   1865   1867   1868     1   109.5000469 502.080000
   1865   1882   1884     1   109.5000469 334.720000
   1865   1882   1888     1   109.5000469 418.400000
   1862   1865   1867     1   109.5000469 418.400000
   1862   1865   1882     1   109.5000469 334.720000
   1861   1862   1865     1   109.5000469 418.400000
   1860   1858   1861     1   108.2300464 836.800000
   1859   1858   1860     1   119.9000514 1171.520000
   1859   1858   1861     1   108.2300464 836.800000
   1858   1861   1862     1   120.5000516 836.800000
   1918   1919   1920     1   108.2300464 836.800000
   1918   1919   1921     1   108.2300464 836.800000
   1918   1919   1922     1   102.6000440 376.560000
   1914   1912   1918     1   109.5000469 418.400000
   1912   1914   1916     1   109.5000469 418.400000
   1912   1918   1919     1   120.5000516 836.800000
   1908   1910   1911     1   120.6000517 669.440000
   1907   1906   1908     1   120.6000517 669.440000
   1906   1908   1910     1   126.4000542 585.760000
   1904   1906   1907     1   125.3000537 669.440000
   1904   1906   1908     1   114.1000489 585.760000
   1902   1901   1910     1   121.6000521 585.760000
   1902   1904   1906     1   120.7000517 527.184000
   1901   1899   1914     1   109.5000469 418.400000
   1901   1902   1904     1   121.2000519 585.760000
   1901   1910   1908     1   115.4000495 585.760000
   1901   1910   1911     1   120.9000518 669.440000
   1899   1901   1902     1   121.2000519 585.760000
   1899   1901   1910     1   117.6000504 585.760000
   1899   1914   1912     1   109.5000469 334.720000
   1899   1914   1916     1   109.5000469 418.400000
   1898   1896   1912     1   109.5000469 418.400000
   1898   1899   1901     1   109.5000469 418.400000
   1898   1899   1914     1   109.5000469 418.400000
   1896   1898   1899     1   109.5000469 502.080000
   1896   1912   1914     1   109.5000469 334.720000
   1896   1912   1918     1   109.5000469 418.400000
   1893   1896   1898     1   109.5000469 418.400000
   1893   1896   1912     1   109.5000469 334.720000
   1892   1893   1896     1   109.5000469 418.400000
   1891   1889   1892     1   108.2300464 836.800000
   1890   1889   1891     1   119.9000514 1171.520000
   1890   1889   1892     1   108.2300464 836.800000
   1889   1892   1893     1   120.5000516 836.800000
   1951   1952   1953     1   108.2300464 836.800000
   1951   1952   1954     1   108.2300464 836.800000
   1951   1952   1955     1   102.6000440 376.560000
   1947   1945   1951     1   109.5000469 418.400000
   1945   1947   1949     1   109.5000469 418.400000
   1945   1951   1952     1   120.5000516 836.800000
   1941   1943   1944     1   111.0000476 585.760000
   1940   1941   1943     1   129.1000553 585.760000
   1937   1936   1940     1   119.3000511 585.760000
   1936   1935   1944     1   117.3000503 527.184000
   1936   1940   1941     1   118.6000508 585.760000
   1935   1936   1937     1   123.5000529 585.760000
   1935   1936   1940     1   117.3000503 585.760000
   1935   1944   1943     1   127.7000547 585.760000
   1934   1935   1936     1   132.4000567 585.760000
   1934   1935   1944     1   110.4000473 585.760000
   1932   1931   1944     1   105.4000452 585.760000
   1932   1934   1935     1   103.8000445 585.760000
   1931   1929   1947     1   109.5000469 418.400000
   1931   1932   1934     1   113.9000488 585.760000
   1931   1944   1935     1   106.2000455 585.760000
   1931   1944   1943     1   126.2000541 585.760000
   1929   1931   1932     1   128.8000552 585.760000
   1929   1931   1944     1   125.8000539 585.760000
   1929   1947   1945     1   109.5000469 334.720000
   1929   1947   1949     1   109.5000469 418.400000
   1928   1926   1945     1   109.5000469 418.400000
   1928   1929   1931     1   109.5000469 418.400000
   1928   1929   1947     1   109.5000469 418.400000
   1926   1928   1929     1   109.5000469 502.080000
   1926   1945   1947     1   109.5000469 334.720000
   1926   1945   1951     1   109.5000469 418.400000
   1923   1926   1928     1   109.5000469 418.400000
   1923   1926   1945     1   109.5000469 334.720000
   1922   1923   1926     1   109.5000469 418.400000
   1921   1919   1922     1   108.2300464 836.800000
   1920   1919   1921     1   119.9000514 1171.520000
   1920   1919   1922     1   108.2300464 836.800000
   1919   1922   1923     1   120.5000516 836.800000
   1985   1986   1987     1   108.2300464 836.800000
   1985   1986   1988     1   108.2300464 836.800000
   1985   1986   1989     1   102.6000440 376.560000
   1981   1979   1985     1   109.5000469 418.400000
   1979   1981   1983     1   109.5000469 418.400000
   1979   1985   1986     1   120.5000516 836.800000
   1974   1973   1977     1   119.3000511 585.760000
   1973   1977   1978     1   112.2000481 585.760000
   1971   1973   1974     1   116.0000497 585.760000
   1971   1973   1977     1   123.3000528 585.760000
   1970   1969   1971     1   120.6000517 669.440000
   1969   1968   1978     1   119.2000511 527.184000
   1969   1971   1973     1   125.2000537 585.760000
   1968   1969   1970     1   128.8000552 669.440000
   1968   1969   1971     1   111.3000477 585.760000
   1968   1978   1977     1   127.7000547 585.760000
   1967   1968   1969     1   130.0000557 585.760000
   1967   1968   1978     1   110.4000473 585.760000
   1965   1964   1978     1   105.4000452 585.760000
   1965   1967   1968     1   103.8000445 585.760000
   1964   1962   1981     1   109.5000469 418.400000
   1964   1965   1967     1   113.9000488 585.760000
   1964   1978   1968     1   106.2000455 585.760000
   1964   1978   1977     1   126.2000541 585.760000
   1962   1964   1965     1   128.8000552 585.760000
   1962   1964   1978     1   125.8000539 585.760000
   1962   1981   1979     1   109.5000469 334.720000
   1962   1981   1983     1   109.5000469 418.400000
   1961   1959   1979     1   109.5000469 418.400000
   1961   1962   1964     1   109.5000469 418.400000
   1961   1962   1981     1   109.5000469 418.400000
   1959   1961   1962     1   109.5000469 502.080000
   1959   1979   1981     1   109.5000469 334.720000
   1959   1979   1985     1   109.5000469 418.400000
   1956   1959   1961     1   109.5000469 418.400000
   1956   1959   1979     1   109.5000469 334.720000
   1955   1956   1959     1   109.5000469 418.400000
   1954   1952   1955     1   108.2300464 836.800000
   1953   1952   1954     1   119.9000514 1171.520000
   1953   1952   1955     1   108.2300464 836.800000
   1952   1955   1956     1   120.5000516 836.800000
   2015   2016   2017     1   108.2300464 836.800000
   2015   2016   2018     1   108.2300464 836.800000
   2015   2016   2019     1   102.6000440 376.560000
   2011   2009   2015     1   109.5000469 418.400000
   2009   2011   2013     1   109.5000469 418.400000
   2009   2015   2016     1   120.5000516 836.800000
   2005   2007   2008     1   120.6000517 669.440000
   2004   2003   2005     1   120.6000517 669.440000
   2003   2005   2007     1   126.4000542 585.760000
   2001   2003   2004     1   125.3000537 669.440000
   2001   2003   2005     1   114.1000489 585.760000
   1999   1998   2007     1   121.6000521 585.760000
   1999   2001   2003     1   120.7000517 527.184000
   1998   1996   2011     1   109.5000469 418.400000
   1998   1999   2001     1   121.2000519 585.760000
   1998   2007   2005     1   115.4000495 585.760000
   1998   2007   2008     1   120.9000518 669.440000
   1996   1998   1999     1   121.2000519 585.760000
   1996   1998   2007     1   117.6000504 585.760000
   1996   2011   2009     1   109.5000469 334.720000
   1996   2011   2013     1   109.5000469 418.400000
   1995   1993   2009     1   109.5000469 418.400000
   1995   1996   1998     1   109.5000469 418.400000
   1995   1996   2011     1   109.5000469 418.400000
   1993   1995   1996     1   109.5000469 502.080000
   1993   2009   2011     1   109.5000469 334.720000
   1993   2009   2015     1   109.5000469 418.400000
   1990   1993   1995     1   109.5000469 418.400000
   1990   1993   2009     1   109.5000469 334.720000
   1989   1990   1993     1   109.5000469 418.400000
   1988   1986   1989     1   108.2300464 836.800000
   1987   1986   1988     1   119.9000514 1171.520000
   1987   1986   1989     1   108.2300464 836.800000
   1986   1989   1990     1   120.5000516 836.800000
   2048   2049   2050     1   108.2300464 836.800000
   2048   2049   2051     1   108.2300464 836.800000
   2048   2049   2052     1   102.6000440 376.560000
   2044   2042   2048     1   109.5000469 418.400000
   2042   2044   2046     1   109.5000469 418.400000
   2042   2048   2049     1   120.5000516 836.800000
   2038   2040   2041     1   111.0000476 585.760000
   2037   2038   2040     1   129.1000553 585.760000
   2034   2033   2037     1   119.3000511 585.760000
   2033   2032   2041     1   117.3000503 527.184000
   2033   2037   2038     1   118.6000508 585.760000
   2032   2033   2034     1   123.5000529 585.760000
   2032   2033   2037     1   117.3000503 585.760000
   2032   2041   2040     1   127.7000547 585.760000
   2031   2032   2033     1   132.4000567 585.760000
   2031   2032   2041     1   110.4000473 585.760000
   2029   2028   2041     1   105.4000452 585.760000
   2029   2031   2032     1   103.8000445 585.760000
   2028   2026   2044     1   109.5000469 418.400000
   2028   2029   2031     1   113.9000488 585.760000
   2028   2041   2032     1   106.2000455 585.760000
   2028   2041   2040     1   126.2000541 585.760000
   2026   2028   2029     1   128.8000552 585.760000
   2026   2028   2041     1   125.8000539 585.760000
   2026   2044   2042     1   109.5000469 334.720000
   2026   2044   2046     1   109.5000469 418.400000
   2025   2023   2042     1   109.5000469 418.400000
   2025   2026   2028     1   109.5000469 418.400000
   2025   2026   2044     1   109.5000469 418.400000
   2023   2025   2026     1   109.5000469 502.080000
   2023   2042   2044     1   109.5000469 334.720000
   2023   2042   2048     1   109.5000469 418.400000
   2020   2023   2025     1   109.5000469 418.400000
   2020   2023   2042     1   109.5000469 334.720000
   2019   2020   2023     1   109.5000469 418.400000
   2018   2016   2019     1   108.2300464 836.800000
   2017   2016   2018     1   119.9000514 1171.520000
   2017   2016   2019     1   108.2300464 836.800000
   2016   2019   2020     1   120.5000516 836.800000
   2079   2080   2081     1   108.2300464 836.800000
   2079   2080   2082     1   108.2300464 836.800000
   2079   2080   2083     1   102.6000440 376.560000
   2075   2073   2079     1   109.5000469 418.400000
   2073   2075   2077     1   109.5000469 418.400000
   2073   2079   2080     1   120.5000516 836.800000
   2070   2071   2072     1   122.5000525 669.440000
   2067   2066   2070     1   119.3000511 585.760000
   2066   2070   2071     1   120.5000516 585.760000
   2064   2066   2067     1   120.1000515 585.760000
   2064   2066   2070     1   121.5000521 585.760000
   2062   2061   2071     1   121.6000521 585.760000
   2062   2064   2066     1   117.0000501 527.184000
   2061   2059   2075     1   109.5000469 418.400000
   2061   2062   2064     1   121.2000519 585.760000
   2061   2071   2070     1   118.6000508 585.760000
   2061   2071   2072     1   120.9000518 669.440000
   2059   2061   2062     1   121.2000519 585.760000
   2059   2061   2071     1   117.6000504 585.760000
   2059   2075   2073     1   109.5000469 334.720000
   2059   2075   2077     1   109.5000469 418.400000
   2058   2056   2073     1   109.5000469 418.400000
   2058   2059   2061     1   109.5000469 418.400000
   2058   2059   2075     1   109.5000469 418.400000
   2056   2058   2059     1   109.5000469 502.080000
   2056   2073   2075     1   109.5000469 334.720000
   2056   2073   2079     1   109.5000469 418.400000
   2053   2056   2058     1   109.5000469 418.400000
   2053   2056   2073     1   109.5000469 334.720000
   2052   2053   2056     1   109.5000469 418.400000
   2051   2049   2052     1   108.2300464 836.800000
   2050   2049   2051     1   119.9000514 1171.520000
   2050   2049   2052     1   108.2300464 836.800000
   2049   2052   2053     1   120.5000516 836.800000
   2109   2110   2111     1   108.2300464 836.800000
   2109   2110   2112     1   108.2300464 836.800000
   2109   2110   2113     1   102.6000440 376.560000
   2105   2103   2109     1   109.5000469 418.400000
   2103   2105   2107     1   109.5000469 418.400000
   2103   2109   2110     1   120.5000516 836.800000
   2099   2101   2102     1   120.6000517 669.440000
   2098   2097   2099     1   120.6000517 669.440000
   2097   2099   2101     1   126.4000542 585.760000
   2095   2097   2098     1   125.3000537 669.440000
   2095   2097   2099     1   114.1000489 585.760000
   2093   2092   2101     1   121.6000521 585.760000
   2093   2095   2097     1   120.7000517 527.184000
   2092   2090   2105     1   109.5000469 418.400000
   2092   2093   2095     1   121.2000519 585.760000
   2092   2101   2099     1   115.4000495 585.760000
   2092   2101   2102     1   120.9000518 669.440000
   2090   2092   2093     1   121.2000519 585.760000
   2090   2092   2101     1   117.6000504 585.760000
   2090   2105   2103     1   109.5000469 334.720000
   2090   2105   2107     1   109.5000469 418.400000
   2089   2087   2103     1   109.5000469 418.400000
   2089   2090   2092     1   109.5000469 418.400000
   2089   2090   2105     1   109.5000469 418.400000
   2087   2089   2090     1   109.5000469 502.080000
   2087   2103   2105     1   109.5000469 334.720000
   2087   2103   2109     1   109.5000469 418.400000
   2084   2087   2089     1   109.5000469 418.400000
   2084   2087   2103     1   109.5000469 334.720000
   2083   2084   2087     1   109.5000469 418.400000
   2082   2080   2083     1   108.2300464 836.800000
   2081   2080   2082     1   119.9000514 1171.520000
   2081   2080   2083     1   108.2300464 836.800000
   2080   2083   2084     1   120.5000516 836.800000
   2143   2144   2145     1   108.2300464 836.800000
   2143   2144   2146     1   108.2300464 836.800000
   2143   2144   2147     1   102.6000440 376.560000
   2139   2137   2143     1   109.5000469 418.400000
   2137   2139   2141     1   109.5000469 418.400000
   2137   2143   2144     1   120.5000516 836.800000
   2132   2131   2135     1   119.3000511 585.760000
   2131   2135   2136     1   112.2000481 585.760000
   2129   2131   2132     1   116.0000497 585.760000
   2129   2131   2135     1   123.3000528 585.760000
   2128   2127   2129     1   120.6000517 669.440000
   2127   2126   2136     1   119.2000511 527.184000
   2127   2129   2131     1   125.2000537 585.760000
   2126   2127   2128     1   128.8000552 669.440000
   2126   2127   2129     1   111.3000477 585.760000
   2126   2136   2135     1   127.7000547 585.760000
   2125   2126   2127     1   130.0000557 585.760000
   2125   2126   2136     1   110.4000473 585.760000
   2123   2122   2136     1   105.4000452 585.760000
   2123   2125   2126     1   103.8000445 585.760000
   2122   2120   2139     1   109.5000469 418.400000
   2122   2123   2125     1   113.9000488 585.760000
   2122   2136   2126     1   106.2000455 585.760000
   2122   2136   2135     1   126.2000541 585.760000
   2120   2122   2123     1   128.8000552 585.760000
   2120   2122   2136     1   125.8000539 585.760000
   2120   2139   2137     1   109.5000469 334.720000
   2120   2139   2141     1   109.5000469 418.400000
   2119   2117   2137     1   109.5000469 418.400000
   2119   2120   2122     1   109.5000469 418.400000
   2119   2120   2139     1   109.5000469 418.400000
   2117   2119   2120     1   109.5000469 502.080000
   2117   2137   2139     1   109.5000469 334.720000
   2117   2137   2143     1   109.5000469 418.400000
   2114   2117   2119     1   109.5000469 418.400000
   2114   2117   2137     1   109.5000469 334.720000
   2113   2114   2117     1   109.5000469 418.400000
   2112   2110   2113     1   108.2300464 836.800000
   2111   2110   2112     1   119.9000514 1171.520000
   2111   2110   2113     1   108.2300464 836.800000
   2110   2113   2114     1   120.5000516 836.800000
   2176   2177   2178     1   108.2300464 836.800000
   2176   2177   2179     1   108.2300464 836.800000
   2176   2177   2180     1   102.6000440 376.560000
   2172   2170   2176     1   109.5000469 418.400000
   2170   2172   2174     1   109.5000469 418.400000
   2170   2176   2177     1   120.5000516 836.800000
   2166   2168   2169     1   111.0000476 585.760000
   2165   2166   2168     1   129.1000553 585.760000
   2162   2161   2165     1   119.3000511 585.760000
   2161   2160   2169     1   117.3000503 527.184000
   2161   2165   2166     1   118.6000508 585.760000
   2160   2161   2162     1   123.5000529 585.760000
   2160   2161   2165     1   117.3000503 585.760000
   2160   2169   2168     1   127.7000547 585.760000
   2159   2160   2161     1   132.4000567 585.760000
   2159   2160   2169     1   110.4000473 585.760000
   2157   2156   2169     1   105.4000452 585.760000
   2157   2159   2160     1   103.8000445 585.760000
   2156   2154   2172     1   109.5000469 418.400000
   2156   2157   2159     1   113.9000488 585.760000
   2156   2169   2160     1   106.2000455 585.760000
   2156   2169   2168     1   126.2000541 585.760000
   2154   2156   2157     1   128.8000552 585.760000
   2154   2156   2169     1   125.8000539 585.760000
   2154   2172   2170     1   109.5000469 334.720000
   2154   2172   2174     1   109.5000469 418.400000
   2153   2151   2170     1   109.5000469 418.400000
   2153   2154   2156     1   109.5000469 418.400000
   2153   2154   2172     1   109.5000469 418.400000
   2151   2153   2154     1   109.5000469 502.080000
   2151   2170   2172     1   109.5000469 334.720000
   2151   2170   2176     1   109.5000469 418.400000
   2148   2151   2153     1   109.5000469 418.400000
   2148   2151   2170     1   109.5000469 334.720000
   2147   2148   2151     1   109.5000469 418.400000
   2146   2144   2147     1   108.2300464 836.800000
   2145   2144   2146     1   119.9000514 1171.520000
   2145   2144   2147     1   108.2300464 836.800000
   2144   2147   2148     1   120.5000516 836.800000
   2206   2207   2208     1   108.2300464 836.800000
   2206   2207   2209     1   108.2300464 836.800000
   2206   2207   2210     1   102.6000440 376.560000
   2202   2200   2206     1   109.5000469 418.400000
   2200   2202   2204     1   109.5000469 418.400000
   2200   2206   2207     1   120.5000516 836.800000
   2196   2198   2199     1   120.6000517 669.440000
   2195   2194   2196     1   120.6000517 669.440000
   2194   2196   2198     1   126.4000542 585.760000
   2192   2194   2195     1   125.3000537 669.440000
   2192   2194   2196     1   114.1000489 585.760000
   2190   2189   2198     1   121.6000521 585.760000
   2190   2192   2194     1   120.7000517 527.184000
   2189   2187   2202     1   109.5000469 418.400000
   2189   2190   2192     1   121.2000519 585.760000
   2189   2198   2196     1   115.4000495 585.760000
   2189   2198   2199     1   120.9000518 669.440000
   2187   2189   2190     1   121.2000519 585.760000
   2187   2189   2198     1   117.6000504 585.760000
   2187   2202   2200     1   109.5000469 334.720000
   2187   2202   2204     1   109.5000469 418.400000
   2186   2184   2200     1   109.5000469 418.400000
   2186   2187   2189     1   109.5000469 418.400000
   2186   2187   2202     1   109.5000469 418.400000
   2184   2186   2187     1   109.5000469 502.080000
   2184   2200   2202     1   109.5000469 334.720000
   2184   2200   2206     1   109.5000469 418.400000
   2181   2184   2186     1   109.5000469 418.400000
   2181   2184   2200     1   109.5000469 334.720000
   2180   2181   2184     1   109.5000469 418.400000
   2179   2177   2180     1   108.2300464 836.800000
   2178   2177   2179     1   119.9000514 1171.520000
   2178   2177   2180     1   108.2300464 836.800000
   2177   2180   2181     1   120.5000516 836.800000
   2240   2241   2242     1   108.2300464 836.800000
   2240   2241   2243     1   108.2300464 836.800000
   2240   2241   2244     1   102.6000440 376.560000
   2236   2234   2240     1   109.5000469 418.400000
   2234   2236   2238     1   109.5000469 418.400000
   2234   2240   2241     1   120.5000516 836.800000
   2229   2228   2232     1   119.3000511 585.760000
   2228   2232   2233     1   112.2000481 585.760000
   2226   2228   2229     1   116.0000497 585.760000
   2226   2228   2232     1   123.3000528 585.760000
   2225   2224   2226     1   120.6000517 669.440000
   2224   2223   2233     1   119.2000511 527.184000
   2224   2226   2228     1   125.2000537 585.760000
   2223   2224   2225     1   128.8000552 669.440000
   2223   2224   2226     1   111.3000477 585.760000
   2223   2233   2232     1   127.7000547 585.760000
   2222   2223   2224     1   130.0000557 585.760000
   2222   2223   2233     1   110.4000473 585.760000
   2220   2219   2233     1   105.4000452 585.760000
   2220   2222   2223     1   103.8000445 585.760000
   2219   2217   2236     1   109.5000469 418.400000
   2219   2220   2222     1   113.9000488 585.760000
   2219   2233   2223     1   106.2000455 585.760000
   2219   2233   2232     1   126.2000541 585.760000
   2217   2219   2220     1   128.8000552 585.760000
   2217   2219   2233     1   125.8000539 585.760000
   2217   2236   2234     1   109.5000469 334.720000
   2217   2236   2238     1   109.5000469 418.400000
   2216   2214   2234     1   109.5000469 418.400000
   2216   2217   2219     1   109.5000469 418.400000
   2216   2217   2236     1   109.5000469 418.400000
   2214   2216   2217     1   109.5000469 502.080000
   2214   2234   2236     1   109.5000469 334.720000
   2214   2234   2240     1   109.5000469 418.400000
   2211   2214   2216     1   109.5000469 418.400000
   2211   2214   2234     1   109.5000469 334.720000
   2210   2211   2214     1   109.5000469 418.400000
   2209   2207   2210     1   108.2300464 836.800000
   2208   2207   2209     1   119.9000514 1171.520000
   2208   2207   2210     1   108.2300464 836.800000
   2207   2210   2211     1   120.5000516 836.800000
   2270   2271   2272     1   108.2300464 836.800000
   2270   2271   2273     1   108.2300464 836.800000
   2270   2271   2274     1   102.6000440 376.560000
   2266   2264   2270     1   109.5000469 418.400000
   2264   2266   2268     1   109.5000469 418.400000
   2264   2270   2271     1   120.5000516 836.800000
   2260   2262   2263     1   120.6000517 669.440000
   2259   2258   2260     1   120.6000517 669.440000
   2258   2260   2262     1   126.4000542 585.760000
   2256   2258   2259     1   125.3000537 669.440000
   2256   2258   2260     1   114.1000489 585.760000
   2254   2253   2262     1   121.6000521 585.760000
   2254   2256   2258     1   120.7000517 527.184000
   2253   2251   2266     1   109.5000469 418.400000
   2253   2254   2256     1   121.2000519 585.760000
   2253   2262   2260     1   115.4000495 585.760000
   2253   2262   2263     1   120.9000518 669.440000
   2251   2253   2254     1   121.2000519 585.760000
   2251   2253   2262     1   117.6000504 585.760000
   2251   2266   2264     1   109.5000469 334.720000
   2251   2266   2268     1   109.5000469 418.400000
   2250   2248   2264     1   109.5000469 418.400000
   2250   2251   2253     1   109.5000469 418.400000
   2250   2251   2266     1   109.5000469 418.400000
   2248   2250   2251     1   109.5000469 502.080000
   2248   2264   2266     1   109.5000469 334.720000
   2248   2264   2270     1   109.5000469 418.400000
   2245   2248   2250     1   109.5000469 418.400000
   2245   2248   2264     1   109.5000469 334.720000
   2244   2245   2248     1   109.5000469 418.400000
   2243   2241   2244     1   108.2300464 836.800000
   2242   2241   2243     1   119.9000514 1171.520000
   2242   2241   2244     1   108.2300464 836.800000
   2241   2244   2245     1   120.5000516 836.800000
   2301   2302   2303     1   108.2300464 836.800000
   2301   2302   2304     1   108.2300464 836.800000
   2301   2302   2305     1   102.6000440 376.560000
   2297   2295   2301     1   109.5000469 418.400000
   2295   2297   2299     1   109.5000469 418.400000
   2295   2301   2302     1   120.5000516 836.800000
   2292   2293   2294     1   122.5000525 669.440000
   2289   2288   2292     1   119.3000511 585.760000
   2288   2292   2293     1   120.5000516 585.760000
   2286   2288   2289     1   120.1000515 585.760000
   2286   2288   2292     1   121.5000521 585.760000
   2284   2283   2293     1   121.6000521 585.760000
   2284   2286   2288     1   117.0000501 527.184000
   2283   2281   2297     1   109.5000469 418.400000
   2283   2284   2286     1   121.2000519 585.760000
   2283   2293   2292     1   118.6000508 585.760000
   2283   2293   2294     1   120.9000518 669.440000
   2281   2283   2284     1   121.2000519 585.760000
   2281   2283   2293     1   117.6000504 585.760000
   2281   2297   2295     1   109.5000469 334.720000
   2281   2297   2299     1   109.5000469 418.400000
   2280   2278   2295     1   109.5000469 418.400000
   2280   2281   2283     1   109.5000469 418.400000
   2280   2281   2297     1   109.5000469 418.400000
   2278   2280   2281     1   109.5000469 502.080000
   2278   2295   2297     1   109.5000469 334.720000
   2278   2295   2301     1   109.5000469 418.400000
   2275   2278   2280     1   109.5000469 418.400000
   2275   2278   2295     1   109.5000469 334.720000
   2274   2275   2278     1   109.5000469 418.400000
   2273   2271   2274     1   108.2300464 836.800000
   2272   2271   2273     1   119.9000514 1171.520000
   2272   2271   2274     1   108.2300464 836.800000
   2271   2274   2275     1   120.5000516 836.800000
   2335   2336   2337     1   108.2300464 836.800000
   2335   2336   2338     1   108.2300464 836.800000
   2335   2336   2339     1   102.6000440 376.560000
   2331   2329   2335     1   109.5000469 418.400000
   2329   2331   2333     1   109.5000469 418.400000
   2329   2335   2336     1   120.5000516 836.800000
   2324   2323   2327     1   119.3000511 585.760000
   2323   2327   2328     1   112.2000481 585.760000
   2321   2323   2324     1   116.0000497 585.760000
   2321   2323   2327     1   123.3000528 585.760000
   2320   2319   2321     1   120.6000517 669.440000
   2319   2318   2328     1   119.2000511 527.184000
   2319   2321   2323     1   125.2000537 585.760000
   2318   2319   2320     1   128.8000552 669.440000
   2318   2319   2321     1   111.3000477 585.760000
   2318   2328   2327     1   127.7000547 585.760000
   2317   2318   2319     1   130.0000557 585.760000
   2317   2318   2328     1   110.4000473 585.760000
   2315   2314   2328     1   105.4000452 585.760000
   2315   2317   2318     1   103.8000445 585.760000
   2314   2312   2331     1   109.5000469 418.400000
   2314   2315   2317     1   113.9000488 585.760000
   2314   2328   2318     1   106.2000455 585.760000
   2314   2328   2327     1   126.2000541 585.760000
   2312   2314   2315     1   128.8000552 585.760000
   2312   2314   2328     1   125.8000539 585.760000
   2312   2331   2329     1   109.5000469 334.720000
   2312   2331   2333     1   109.5000469 418.400000
   2311   2309   2329     1   109.5000469 418.400000
   2311   2312   2314     1   109.5000469 418.400000
   2311   2312   2331     1   109.5000469 418.400000
   2309   2311   2312     1   109.5000469 502.080000
   2309   2329   2331     1   109.5000469 334.720000
   2309   2329   2335     1   109.5000469 418.400000
   2306   2309   2311     1   109.5000469 418.400000
   2306   2309   2329     1   109.5000469 334.720000
   2305   2306   2309     1   109.5000469 418.400000
   2304   2302   2305     1   108.2300464 836.800000
   2303   2302   2304     1   119.9000514 1171.520000
   2303   2302   2305     1   108.2300464 836.800000
   2302   2305   2306     1   120.5000516 836.800000
   2365   2366   2367     1   108.2300464 836.800000
   2365   2366   2368     1   108.2300464 836.800000
   2365   2366   2369     1   102.6000440 376.560000
   2361   2359   2365     1   109.5000469 418.400000
   2359   2361   2363     1   109.5000469 418.400000
   2359   2365   2366     1   120.5000516 836.800000
   2355   2357   2358     1   120.6000517 669.440000
   2354   2353   2355     1   120.6000517 669.440000
   2353   2355   2357     1   126.4000542 585.760000
   2351   2353   2354     1   125.3000537 669.440000
   2351   2353   2355     1   114.1000489 585.760000
   2349   2348   2357     1   121.6000521 585.760000
   2349   2351   2353     1   120.7000517 527.184000
   2348   2346   2361     1   109.5000469 418.400000
   2348   2349   2351     1   121.2000519 585.760000
   2348   2357   2355     1   115.4000495 585.760000
   2348   2357   2358     1   120.9000518 669.440000
   2346   2348   2349     1   121.2000519 585.760000
   2346   2348   2357     1   117.6000504 585.760000
   2346   2361   2359     1   109.5000469 334.720000
   2346   2361   2363     1   109.5000469 418.400000
   2345   2343   2359     1   109.5000469 418.400000
   2345   2346   2348     1   109.5000469 418.400000
   2345   2346   2361     1   109.5000469 418.400000
   2343   2345   2346     1   109.5000469 502.080000
   2343   2359   2361     1   109.5000469 334.720000
   2343   2359   2365     1   109.5000469 418.400000
   2340   2343   2345     1   109.5000469 418.400000
   2340   2343   2359     1   109.5000469 334.720000
   2339   2340   2343     1   109.5000469 418.400000
   2338   2336   2339     1   108.2300464 836.800000
   2337   2336   2338     1   119.9000514 1171.520000
   2337   2336   2339     1   108.2300464 836.800000
   2336   2339   2340     1   120.5000516 836.800000
   2398   2399   2400     1   108.2300464 836.800000
   2398   2399   2401     1   108.2300464 836.800000
   2398   2399   2402     1   102.6000440 376.560000
   2394   2392   2398     1   109.5000469 418.400000
   2392   2394   2396     1   109.5000469 418.400000
   2392   2398   2399     1   120.5000516 836.800000
   2388   2390   2391     1   111.0000476 585.760000
   2387   2388   2390     1   129.1000553 585.760000
   2384   2383   2387     1   119.3000511 585.760000
   2383   2382   2391     1   117.3000503 527.184000
   2383   2387   2388     1   118.6000508 585.760000
   2382   2383   2384     1   123.5000529 585.760000
   2382   2383   2387     1   117.3000503 585.760000
   2382   2391   2390     1   127.7000547 585.760000
   2381   2382   2383     1   132.4000567 585.760000
   2381   2382   2391     1   110.4000473 585.760000
   2379   2378   2391     1   105.4000452 585.760000
   2379   2381   2382     1   103.8000445 585.760000
   2378   2376   2394     1   109.5000469 418.400000
   2378   2379   2381     1   113.9000488 585.760000
   2378   2391   2382     1   106.2000455 585.760000
   2378   2391   2390     1   126.2000541 585.760000
   2376   2378   2379     1   128.8000552 585.760000
   2376   2378   2391     1   125.8000539 585.760000
   2376   2394   2392     1   109.5000469 334.720000
   2376   2394   2396     1   109.5000469 418.400000
   2375   2373   2392     1   109.5000469 418.400000
   2375   2376   2378     1   109.5000469 418.400000
   2375   2376   2394     1   109.5000469 418.400000
   2373   2375   2376     1   109.5000469 502.080000
   2373   2392   2394     1   109.5000469 334.720000
   2373   2392   2398     1   109.5000469 418.400000
   2370   2373   2375     1   109.5000469 418.400000
   2370   2373   2392     1   109.5000469 334.720000
   2369   2370   2373     1   109.5000469 418.400000
   2368   2366   2369     1   108.2300464 836.800000
   2367   2366   2368     1   119.9000514 1171.520000
   2367   2366   2369     1   108.2300464 836.800000
   2366   2369   2370     1   120.5000516 836.800000
   2428   2429   2430     1   108.2300464 836.800000
   2428   2429   2431     1   108.2300464 836.800000
   2428   2429   2432     1   102.6000440 376.560000
   2424   2422   2428     1   109.5000469 418.400000
   2422   2424   2426     1   109.5000469 418.400000
   2422   2428   2429     1   120.5000516 836.800000
   2418   2420   2421     1   120.6000517 669.440000
   2417   2416   2418     1   120.6000517 669.440000
   2416   2418   2420     1   126.4000542 585.760000
   2414   2416   2417     1   125.3000537 669.440000
   2414   2416   2418     1   114.1000489 585.760000
   2412   2411   2420     1   121.6000521 585.760000
   2412   2414   2416     1   120.7000517 527.184000
   2411   2409   2424     1   109.5000469 418.400000
   2411   2412   2414     1   121.2000519 585.760000
   2411   2420   2418     1   115.4000495 585.760000
   2411   2420   2421     1   120.9000518 669.440000
   2409   2411   2412     1   121.2000519 585.760000
   2409   2411   2420     1   117.6000504 585.760000
   2409   2424   2422     1   109.5000469 334.720000
   2409   2424   2426     1   109.5000469 418.400000
   2408   2406   2422     1   109.5000469 418.400000
   2408   2409   2411     1   109.5000469 418.400000
   2408   2409   2424     1   109.5000469 418.400000
   2406   2408   2409     1   109.5000469 502.080000
   2406   2422   2424     1   109.5000469 334.720000
   2406   2422   2428     1   109.5000469 418.400000
   2403   2406   2408     1   109.5000469 418.400000
   2403   2406   2422     1   109.5000469 334.720000
   2402   2403   2406     1   109.5000469 418.400000
   2401   2399   2402     1   108.2300464 836.800000
   2400   2399   2401     1   119.9000514 1171.520000
   2400   2399   2402     1   108.2300464 836.800000
   2399   2402   2403     1   120.5000516 836.800000
   2461   2462   2463     1   108.2300464 836.800000
   2461   2462   2464     1   108.2300464 836.800000
   2461   2462   2465     1   102.6000440 376.560000
   2457   2455   2461     1   109.5000469 418.400000
   2455   2457   2459     1   109.5000469 418.400000
   2455   2461   2462     1   120.5000516 836.800000
   2451   2453   2454     1   111.0000476 585.760000
   2450   2451   2453     1   129.1000553 585.760000
   2447   2446   2450     1   119.3000511 585.760000
   2446   2445   2454     1   117.3000503 527.184000
   2446   2450   2451     1   118.6000508 585.760000
   2445   2446   2447     1   123.5000529 585.760000
   2445   2446   2450     1   117.3000503 585.760000
   2445   2454   2453     1   127.7000547 585.760000
   2444   2445   2446     1   132.4000567 585.760000
   2444   2445   2454     1   110.4000473 585.760000
   2442   2441   2454     1   105.4000452 585.760000
   2442   2444   2445     1   103.8000445 585.760000
   2441   2439   2457     1   109.5000469 418.400000
   2441   2442   2444     1   113.9000488 585.760000
   2441   2454   2445     1   106.2000455 585.760000
   2441   2454   2453     1   126.2000541 585.760000
   2439   2441   2442     1   128.8000552 585.760000
   2439   2441   2454     1   125.8000539 585.760000
   2439   2457   2455     1   109.5000469 334.720000
   2439   2457   2459     1   109.5000469 418.400000
   2438   2436   2455     1   109.5000469 418.400000
   2438   2439   2441     1   109.5000469 418.400000
   2438   2439   2457     1   109.5000469 418.400000
   2436   2438   2439     1   109.5000469 502.080000
   2436   2455   2457     1   109.5000469 334.720000
   2436   2455   2461     1   109.5000469 418.400000
   2433   2436   2438     1   109.5000469 418.400000
   2433   2436   2455     1   109.5000469 334.720000
   2432   2433   2436     1   109.5000469 418.400000
   2431   2429   2432     1   108.2300464 836.800000
   2430   2429   2431     1   119.9000514 1171.520000
   2430   2429   2432     1   108.2300464 836.800000
   2429   2432   2433     1   120.5000516 836.800000
   2492   2493   2494     1   108.2300464 836.800000
   2492   2493   2495     1   108.2300464 836.800000
   2492   2493   2496     1   102.6000440 376.560000
   2488   2486   2492     1   109.5000469 418.400000
   2486   2488   2490     1   109.5000469 418.400000
   2486   2492   2493     1   120.5000516 836.800000
   2483   2484   2485     1   122.5000525 669.440000
   2480   2479   2483     1   119.3000511 585.760000
   2479   2483   2484     1   120.5000516 585.760000
   2477   2479   2480     1   120.1000515 585.760000
   2477   2479   2483     1   121.5000521 585.760000
   2475   2474   2484     1   121.6000521 585.760000
   2475   2477   2479     1   117.0000501 527.184000
   2474   2472   2488     1   109.5000469 418.400000
   2474   2475   2477     1   121.2000519 585.760000
   2474   2484   2483     1   118.6000508 585.760000
   2474   2484   2485     1   120.9000518 669.440000
   2472   2474   2475     1   121.2000519 585.760000
   2472   2474   2484     1   117.6000504 585.760000
   2472   2488   2486     1   109.5000469 334.720000
   2472   2488   2490     1   109.5000469 418.400000
   2471   2469   2486     1   109.5000469 418.400000
   2471   2472   2474     1   109.5000469 418.400000
   2471   2472   2488     1   109.5000469 418.400000
   2469   2471   2472     1   109.5000469 502.080000
   2469   2486   2488     1   109.5000469 334.720000
   2469   2486   2492     1   109.5000469 418.400000
   2466   2469   2471     1   109.5000469 418.400000
   2466   2469   2486     1   109.5000469 334.720000
   2465   2466   2469     1   109.5000469 418.400000
   2464   2462   2465     1   108.2300464 836.800000
   2463   2462   2464     1   119.9000514 1171.520000
   2463   2462   2465     1   108.2300464 836.800000
   2462   2465   2466     1   120.5000516 836.800000
   2525   2526   2527     1   108.2300464 836.800000
   2525   2526   2528     1   108.2300464 836.800000
   2525   2526   2529     1   102.6000440 376.560000
   2521   2519   2525     1   109.5000469 418.400000
   2519   2521   2523     1   109.5000469 418.400000
   2519   2525   2526     1   120.5000516 836.800000
   2515   2517   2518     1   111.0000476 585.760000
   2514   2515   2517     1   129.1000553 585.760000
   2511   2510   2514     1   119.3000511 585.760000
   2510   2509   2518     1   117.3000503 527.184000
   2510   2514   2515     1   118.6000508 585.760000
   2509   2510   2511     1   123.5000529 585.760000
   2509   2510   2514     1   117.3000503 585.760000
   2509   2518   2517     1   127.7000547 585.760000
   2508   2509   2510     1   132.4000567 585.760000
   2508   2509   2518     1   110.4000473 585.760000
   2506   2505   2518     1   105.4000452 585.760000
   2506   2508   2509     1   103.8000445 585.760000
   2505   2503   2521     1   109.5000469 418.400000
   2505   2506   2508     1   113.9000488 585.760000
   2505   2518   2509     1   106.2000455 585.760000
   2505   2518   2517     1   126.2000541 585.760000
   2503   2505   2506     1   128.8000552 585.760000
   2503   2505   2518     1   125.8000539 585.760000
   2503   2521   2519     1   109.5000469 334.720000
   2503   2521   2523     1   109.5000469 418.400000
   2502   2500   2519     1   109.5000469 418.400000
   2502   2503   2505     1   109.5000469 418.400000
   2502   2503   2521     1   109.5000469 418.400000
   2500   2502   2503     1   109.5000469 502.080000
   2500   2519   2521     1   109.5000469 334.720000
   2500   2519   2525     1   109.5000469 418.400000
   2497   2500   2502     1   109.5000469 418.400000
   2497   2500   2519     1   109.5000469 334.720000
   2496   2497   2500     1   109.5000469 418.400000
   2495   2493   2496     1   108.2300464 836.800000
   2494   2493   2495     1   119.9000514 1171.520000
   2494   2493   2496     1   108.2300464 836.800000
   2493   2496   2497     1   120.5000516 836.800000
   2559   2560   2561     1   108.2300464 836.800000
   2559   2560   2562     1   108.2300464 836.800000
   2559   2560   2563     1   102.6000440 376.560000
   2555   2553   2559     1   109.5000469 418.400000
   2553   2555   2557     1   109.5000469 418.400000
   2553   2559   2560     1   120.5000516 836.800000
   2548   2547   2551     1   119.3000511 585.760000
   2547   2551   2552     1   112.2000481 585.760000
   2545   2547   2548     1   116.0000497 585.760000
   2545   2547   2551     1   123.3000528 585.760000
   2544   2543   2545     1   120.6000517 669.440000
   2543   2542   2552     1   119.2000511 527.184000
   2543   2545   2547     1   125.2000537 585.760000
   2542   2543   2544     1   128.8000552 669.440000
   2542   2543   2545     1   111.3000477 585.760000
   2542   2552   2551     1   127.7000547 585.760000
   2541   2542   2543     1   130.0000557 585.760000
   2541   2542   2552     1   110.4000473 585.760000
   2539   2538   2552     1   105.4000452 585.760000
   2539   2541   2542     1   103.8000445 585.760000
   2538   2536   2555     1   109.5000469 418.400000
   2538   2539   2541     1   113.9000488 585.760000
   2538   2552   2542     1   106.2000455 585.760000
   2538   2552   2551     1   126.2000541 585.760000
   2536   2538   2539     1   128.8000552 585.760000
   2536   2538   2552     1   125.8000539 585.760000
   2536   2555   2553     1   109.5000469 334.720000
   2536   2555   2557     1   109.5000469 418.400000
   2535   2533   2553     1   109.5000469 418.400000
   2535   2536   2538     1   109.5000469 418.400000
   2535   2536   2555     1   109.5000469 418.400000
   2533   2535   2536     1   109.5000469 502.080000
   2533   2553   2555     1   109.5000469 334.720000
   2533   2553   2559     1   109.5000469 418.400000
   2530   2533   2535     1   109.5000469 418.400000
   2530   2533   2553     1   109.5000469 334.720000
   2529   2530   2533     1   109.5000469 418.400000
   2528   2526   2529     1   108.2300464 836.800000
   2527   2526   2528     1   119.9000514 1171.520000
   2527   2526   2529     1   108.2300464 836.800000
   2526   2529   2530     1   120.5000516 836.800000
   2593   2594   2595     1   108.2300464 836.800000
   2593   2594   2596     1   108.2300464 836.800000
   2593   2594   2597     1   102.6000440 376.560000
   2589   2587   2593     1   109.5000469 418.400000
   2587   2589   2591     1   109.5000469 418.400000
   2587   2593   2594     1   120.5000516 836.800000
   2582   2581   2585     1   119.3000511 585.760000
   2581   2585   2586     1   112.2000481 585.760000
   2579   2581   2582     1   116.0000497 585.760000
   2579   2581   2585     1   123.3000528 585.760000
   2578   2577   2579     1   120.6000517 669.440000
   2577   2576   2586     1   119.2000511 527.184000
   2577   2579   2581     1   125.2000537 585.760000
   2576   2577   2578     1   128.8000552 669.440000
   2576   2577   2579     1   111.3000477 585.760000
   2576   2586   2585     1   127.7000547 585.760000
   2575   2576   2577     1   130.0000557 585.760000
   2575   2576   2586     1   110.4000473 585.760000
   2573   2572   2586     1   105.4000452 585.760000
   2573   2575   2576     1   103.8000445 585.760000
   2572   2570   2589     1   109.5000469 418.400000
   2572   2573   2575     1   113.9000488 585.760000
   2572   2586   2576     1   106.2000455 585.760000
   2572   2586   2585     1   126.2000541 585.760000
   2570   2572   2573     1   128.8000552 585.760000
   2570   2572   2586     1   125.8000539 585.760000
   2570   2589   2587     1   109.5000469 334.720000
   2570   2589   2591     1   109.5000469 418.400000
   2569   2567   2587     1   109.5000469 418.400000
   2569   2570   2572     1   109.5000469 418.400000
   2569   2570   2589     1   109.5000469 418.400000
   2567   2569   2570     1   109.5000469 502.080000
   2567   2587   2589     1   109.5000469 334.720000
   2567   2587   2593     1   109.5000469 418.400000
   2564   2567   2569     1   109.5000469 418.400000
   2564   2567   2587     1   109.5000469 334.720000
   2563   2564   2567     1   109.5000469 418.400000
   2562   2560   2563     1   108.2300464 836.800000
   2561   2560   2562     1   119.9000514 1171.520000
   2561   2560   2563     1   108.2300464 836.800000
   2560   2563   2564     1   120.5000516 836.800000
   2627   2628   2629     1   108.2300464 836.800000
   2627   2628   2630     1   108.2300464 836.800000
   2627   2628   2631     1   102.6000440 376.560000
   2623   2621   2627     1   109.5000469 418.400000
   2621   2623   2625     1   109.5000469 418.400000
   2621   2627   2628     1   120.5000516 836.800000
   2616   2615   2619     1   119.3000511 585.760000
   2615   2619   2620     1   112.2000481 585.760000
   2613   2615   2616     1   116.0000497 585.760000
   2613   2615   2619     1   123.3000528 585.760000
   2612   2611   2613     1   120.6000517 669.440000
   2611   2610   2620     1   119.2000511 527.184000
   2611   2613   2615     1   125.2000537 585.760000
   2610   2611   2612     1   128.8000552 669.440000
   2610   2611   2613     1   111.3000477 585.760000
   2610   2620   2619     1   127.7000547 585.760000
   2609   2610   2611     1   130.0000557 585.760000
   2609   2610   2620     1   110.4000473 585.760000
   2607   2606   2620     1   105.4000452 585.760000
   2607   2609   2610     1   103.8000445 585.760000
   2606   2604   2623     1   109.5000469 418.400000
   2606   2607   2609     1   113.9000488 585.760000
   2606   2620   2610     1   106.2000455 585.760000
   2606   2620   2619     1   126.2000541 585.760000
   2604   2606   2607     1   128.8000552 585.760000
   2604   2606   2620     1   125.8000539 585.760000
   2604   2623   2621     1   109.5000469 334.720000
   2604   2623   2625     1   109.5000469 418.400000
   2603   2601   2621     1   109.5000469 418.400000
   2603   2604   2606     1   109.5000469 418.400000
   2603   2604   2623     1   109.5000469 418.400000
   2601   2603   2604     1   109.5000469 502.080000
   2601   2621   2623     1   109.5000469 334.720000
   2601   2621   2627     1   109.5000469 418.400000
   2598   2601   2603     1   109.5000469 418.400000
   2598   2601   2621     1   109.5000469 334.720000
   2597   2598   2601     1   109.5000469 418.400000
   2596   2594   2597     1   108.2300464 836.800000
   2595   2594   2596     1   119.9000514 1171.520000
   2595   2594   2597     1   108.2300464 836.800000
   2594   2597   2598     1   120.5000516 836.800000
   2658   2659   2660     1   108.2300464 836.800000
   2658   2659   2661     1   108.2300464 836.800000
   2658   2659   2662     1   102.6000440 376.560000
   2654   2652   2658     1   109.5000469 418.400000
   2652   2654   2656     1   109.5000469 418.400000
   2652   2658   2659     1   120.5000516 836.800000
   2649   2650   2651     1   122.5000525 669.440000
   2646   2645   2649     1   119.3000511 585.760000
   2645   2649   2650     1   120.5000516 585.760000
   2643   2645   2646     1   120.1000515 585.760000
   2643   2645   2649     1   121.5000521 585.760000
   2641   2640   2650     1   121.6000521 585.760000
   2641   2643   2645     1   117.0000501 527.184000
   2640   2638   2654     1   109.5000469 418.400000
   2640   2641   2643     1   121.2000519 585.760000
   2640   2650   2649     1   118.6000508 585.760000
   2640   2650   2651     1   120.9000518 669.440000
   2638   2640   2641     1   121.2000519 585.760000
   2638   2640   2650     1   117.6000504 585.760000
   2638   2654   2652     1   109.5000469 334.720000
   2638   2654   2656     1   109.5000469 418.400000
   2637   2635   2652     1   109.5000469 418.400000
   2637   2638   2640     1   109.5000469 418.400000
   2637   2638   2654     1   109.5000469 418.400000
   2635   2637   2638     1   109.5000469 502.080000
   2635   2652   2654     1   109.5000469 334.720000
   2635   2652   2658     1   109.5000469 418.400000
   2632   2635   2637     1   109.5000469 418.400000
   2632   2635   2652     1   109.5000469 334.720000
   2631   2632   2635     1   109.5000469 418.400000
   2630   2628   2631     1   108.2300464 836.800000
   2629   2628   2630     1   119.9000514 1171.520000
   2629   2628   2631     1   108.2300464 836.800000
   2628   2631   2632     1   120.5000516 836.800000
   2688   2689   2690     1   108.2300464 836.800000
   2688   2689   2691     1   108.2300464 836.800000
   2688   2689   2692     1   102.6000440 376.560000
   2684   2682   2688     1   109.5000469 418.400000
   2682   2684   2686     1   109.5000469 418.400000
   2682   2688   2689     1   120.5000516 836.800000
   2678   2680   2681     1   120.6000517 669.440000
   2677   2676   2678     1   120.6000517 669.440000
   2676   2678   2680     1   126.4000542 585.760000
   2674   2676   2677     1   125.3000537 669.440000
   2674   2676   2678     1   114.1000489 585.760000
   2672   2671   2680     1   121.6000521 585.760000
   2672   2674   2676     1   120.7000517 527.184000
   2671   2669   2684     1   109.5000469 418.400000
   2671   2672   2674     1   121.2000519 585.760000
   2671   2680   2678     1   115.4000495 585.760000
   2671   2680   2681     1   120.9000518 669.440000
   2669   2671   2672     1   121.2000519 585.760000
   2669   2671   2680     1   117.6000504 585.760000
   2669   2684   2682     1   109.5000469 334.720000
   2669   2684   2686     1   109.5000469 418.400000
   2668   2666   2682     1   109.5000469 418.400000
   2668   2669   2671     1   109.5000469 418.400000
   2668   2669   2684     1   109.5000469 418.400000
   2666   2668   2669     1   109.5000469 502.080000
   2666   2682   2684     1   109.5000469 334.720000
   2666   2682   2688     1   109.5000469 418.400000
   2663   2666   2668     1   109.5000469 418.400000
   2663   2666   2682     1   109.5000469 334.720000
   2662   2663   2666     1   109.5000469 418.400000
   2661   2659   2662     1   108.2300464 836.800000
   2660   2659   2661     1   119.9000514 1171.520000
   2660   2659   2662     1   108.2300464 836.800000
   2659   2662   2663     1   120.5000516 836.800000
   2718   2719   2720     1   108.2300464 836.800000
   2718   2719   2721     1   108.2300464 836.800000
   2718   2719   2722     1   102.6000440 376.560000
   2714   2712   2718     1   109.5000469 418.400000
   2712   2714   2716     1   109.5000469 418.400000
   2712   2718   2719     1   120.5000516 836.800000
   2708   2710   2711     1   120.6000517 669.440000
   2707   2706   2708     1   120.6000517 669.440000
   2706   2708   2710     1   126.4000542 585.760000
   2704   2706   2707     1   125.3000537 669.440000
   2704   2706   2708     1   114.1000489 585.760000
   2702   2701   2710     1   121.6000521 585.760000
   2702   2704   2706     1   120.7000517 527.184000
   2701   2699   2714     1   109.5000469 418.400000
   2701   2702   2704     1   121.2000519 585.760000
   2701   2710   2708     1   115.4000495 585.760000
   2701   2710   2711     1   120.9000518 669.440000
   2699   2701   2702     1   121.2000519 585.760000
   2699   2701   2710     1   117.6000504 585.760000
   2699   2714   2712     1   109.5000469 334.720000
   2699   2714   2716     1   109.5000469 418.400000
   2698   2696   2712     1   109.5000469 418.400000
   2698   2699   2701     1   109.5000469 418.400000
   2698   2699   2714     1   109.5000469 418.400000
   2696   2698   2699     1   109.5000469 502.080000
   2696   2712   2714     1   109.5000469 334.720000
   2696   2712   2718     1   109.5000469 418.400000
   2693   2696   2698     1   109.5000469 418.400000
   2693   2696   2712     1   109.5000469 334.720000
   2692   2693   2696     1   109.5000469 418.400000
   2691   2689   2692     1   108.2300464 836.800000
   2690   2689   2691     1   119.9000514 1171.520000
   2690   2689   2692     1   108.2300464 836.800000
   2689   2692   2693     1   120.5000516 836.800000
   2748   2749   2750     1   108.2300464 836.800000
   2748   2749   2751     1   108.2300464 836.800000
   2748   2749   2752     1   102.6000440 376.560000
   2744   2742   2748     1   109.5000469 418.400000
   2742   2744   2746     1   109.5000469 418.400000
   2742   2748   2749     1   120.5000516 836.800000
   2738   2740   2741     1   120.6000517 669.440000
   2737   2736   2738     1   120.6000517 669.440000
   2736   2738   2740     1   126.4000542 585.760000
   2734   2736   2737     1   125.3000537 669.440000
   2734   2736   2738     1   114.1000489 585.760000
   2732   2731   2740     1   121.6000521 585.760000
   2732   2734   2736     1   120.7000517 527.184000
   2731   2729   2744     1   109.5000469 418.400000
   2731   2732   2734     1   121.2000519 585.760000
   2731   2740   2738     1   115.4000495 585.760000
   2731   2740   2741     1   120.9000518 669.440000
   2729   2731   2732     1   121.2000519 585.760000
   2729   2731   2740     1   117.6000504 585.760000
   2729   2744   2742     1   109.5000469 334.720000
   2729   2744   2746     1   109.5000469 418.400000
   2728   2726   2742     1   109.5000469 418.400000
   2728   2729   2731     1   109.5000469 418.400000
   2728   2729   2744     1   109.5000469 418.400000
   2726   2728   2729     1   109.5000469 502.080000
   2726   2742   2744     1   109.5000469 334.720000
   2726   2742   2748     1   109.5000469 418.400000
   2723   2726   2728     1   109.5000469 418.400000
   2723   2726   2742     1   109.5000469 334.720000
   2722   2723   2726     1   109.5000469 418.400000
   2721   2719   2722     1   108.2300464 836.800000
   2720   2719   2721     1   119.9000514 1171.520000
   2720   2719   2722     1   108.2300464 836.800000
   2719   2722   2723     1   120.5000516 836.800000
   2774   2772   2778     1   109.5000469 418.400000
   2772   2774   2776     1   109.5000469 418.400000
   2768   2770   2771     1   120.6000517 669.440000
   2767   2766   2768     1   120.6000517 669.440000
   2766   2768   2770     1   126.4000542 585.760000
   2764   2766   2767     1   125.3000537 669.440000
   2764   2766   2768     1   114.1000489 585.760000
   2762   2761   2770     1   121.6000521 585.760000
   2762   2764   2766     1   120.7000517 527.184000
   2761   2759   2774     1   109.5000469 418.400000
   2761   2762   2764     1   121.2000519 585.760000
   2761   2770   2768     1   115.4000495 585.760000
   2761   2770   2771     1   120.9000518 669.440000
   2759   2761   2762     1   121.2000519 585.760000
   2759   2761   2770     1   117.6000504 585.760000
   2759   2774   2772     1   109.5000469 334.720000
   2759   2774   2776     1   109.5000469 418.400000
   2758   2756   2772     1   109.5000469 418.400000
   2758   2759   2761     1   109.5000469 418.400000
   2758   2759   2774     1   109.5000469 418.400000
   2756   2758   2759     1   109.5000469 502.080000
   2756   2772   2774     1   109.5000469 334.720000
   2756   2772   2778     1   109.5000469 418.400000
   2753   2756   2758     1   109.5000469 418.400000
   2753   2756   2772     1   109.5000469 334.720000
   2752   2753   2756     1   109.5000469 418.400000
   2751   2749   2752     1   108.2300464 836.800000
   2750   2749   2751     1   119.9000514 1171.520000
   2750   2749   2752     1   108.2300464 836.800000
   2749   2752   2753     1   120.5000516 836.800000
     29     28     30     1   109.5000469 418.400000
     28     30     31     1   108.5000465 460.240000
     27     26     28     1   109.5000469 418.400000
     27     26     32     1   109.5000469 418.400000
     26     28     29     1   109.5000469 418.400000
     22     21     23     1   120.0000514 292.880000
     20     21     22     1   120.0000514 418.400000
     20     21     23     1   120.0000514 418.400000
     19     18     20     1   118.0000506 418.400000
     16     18     19     1   116.8000501 418.400000
     13     12     14     1   123.0500530 418.400000
     11     12     13     1   123.0500530 418.400000
     10      9     11     1   109.5000469 418.400000
     10      9     28     1   109.5000469 418.400000
      9     28     29     1   109.5000469 418.400000
      8      9     10     1   109.5000469 418.400000
      7      6      8     1   109.5000469 418.400000
      7      6     26     1   109.5000469 418.400000
      6     26     27     1   109.5000469 418.400000
      5      3      6     1   109.5000469 418.400000
      4      3      5     1   109.5000469 292.880000
      4      3      6     1   109.5000469 418.400000
      3      6      7     1   109.5000469 418.400000
      2      3      4     1   109.5000469 418.400000
      2      3      5     1   109.5000469 418.400000
      1      2      3     1   108.5000465 460.240000
     59     58     60     1   109.5000469 418.400000
     58     60     61     1   108.5000465 460.240000
     57     56     58     1   109.5000469 418.400000
     57     56     62     1   109.5000469 418.400000
     56     58     59     1   109.5000469 418.400000
     53     52     54     1   116.8000501 418.400000
     50     52     53     1   116.8000501 418.400000
     49     48     50     1   119.7000513 418.400000
     47     46     48     1   119.7000513 418.400000
     46     48     49     1   119.7000513 418.400000
     45     46     47     1   119.1000510 418.400000
     44     43     45     1   109.5000469 418.400000
     44     43     58     1   109.5000469 418.400000
     43     58     59     1   109.5000469 418.400000
     42     43     44     1   109.5000469 418.400000
     41     40     42     1   109.5000469 418.400000
     41     40     56     1   109.5000469 418.400000
     40     56     57     1   109.5000469 418.400000
     39     37     40     1   109.5000469 418.400000
     38     37     39     1   109.5000469 292.880000
     38     37     40     1   109.5000469 418.400000
     37     40     41     1   109.5000469 418.400000
     36     37     38     1   109.5000469 418.400000
     36     37     39     1   109.5000469 418.400000
     89     88     90     1   109.5000469 418.400000
     88     90     91     1   108.5000465 460.240000
     87     86     88     1   109.5000469 418.400000
     87     86     92     1   109.5000469 418.400000
     86     88     89     1   109.5000469 418.400000
     83     82     84     1   116.8000501 418.400000
     80     82     83     1   116.8000501 418.400000
     79     78     80     1   119.7000513 418.400000
     77     76     78     1   119.7000513 418.400000
     76     78     79     1   119.7000513 418.400000
     75     76     77     1   119.1000510 418.400000
     74     73     75     1   109.5000469 418.400000
     74     73     88     1   109.5000469 418.400000
     73     88     89     1   109.5000469 418.400000
     72     73     74     1   109.5000469 418.400000
     71     70     72     1   109.5000469 418.400000
     71     70     86     1   109.5000469 418.400000
     70     86     87     1   109.5000469 418.400000
     69     67     70     1   109.5000469 418.400000
     68     67     69     1   109.5000469 292.880000
     68     67     70     1   109.5000469 418.400000
     67     70     71     1   109.5000469 418.400000
     66     67     68     1   109.5000469 418.400000
     66     67     69     1   109.5000469 418.400000
    119    118    120     1   109.5000469 418.400000
    118    120    121     1   108.5000465 460.240000
    117    116    118     1   109.5000469 418.400000
    117    116    122     1   109.5000469 418.400000
    116    118    119     1   109.5000469 418.400000
    113    112    114     1   116.8000501 418.400000
    110    112    113     1   116.8000501 418.400000
    109    108    110     1   119.7000513 418.400000
    107    106    108     1   119.7000513 418.400000
    106    108    109     1   119.7000513 418.400000
    105    106    107     1   119.1000510 418.400000
    104    103    105     1   109.5000469 418.400000
    104    103    118     1   109.5000469 418.400000
    103    118    119     1   109.5000469 418.400000
    102    103    104     1   109.5000469 418.400000
    101    100    102     1   109.5000469 418.400000
    101    100    116     1   109.5000469 418.400000
    100    116    117     1   109.5000469 418.400000
     99     97    100     1   109.5000469 418.400000
     98     97     99     1   109.5000469 292.880000
     98     97    100     1   109.5000469 418.400000
     97    100    101     1   109.5000469 418.400000
     96     97     98     1   109.5000469 418.400000
     96     97     99     1   109.5000469 418.400000
    149    148    150     1   109.5000469 418.400000
    148    150    151     1   108.5000465 460.240000
    147    146    148     1   109.5000469 418.400000
    147    146    152     1   109.5000469 418.400000
    146    148    149     1   109.5000469 418.400000
    143    142    144     1   116.8000501 418.400000
    140    142    143     1   116.8000501 418.400000
    139    138    140     1   119.7000513 418.400000
    137    136    138     1   119.7000513 418.400000
    136    138    139     1   119.7000513 418.400000
    135    136    137     1   119.1000510 418.400000
    134    133    135     1   109.5000469 418.400000
    134    133    148     1   109.5000469 418.400000
    133    148    149     1   109.5000469 418.400000
    132    133    134     1   109.5000469 418.400000
    131    130    132     1   109.5000469 418.400000
    131    130    146     1   109.5000469 418.400000
    130    146    147     1   109.5000469 418.400000
    129    127    130     1   109.5000469 418.400000
    128    127    129     1   109.5000469 292.880000
    128    127    130     1   109.5000469 418.400000
    127    130    131     1   109.5000469 418.400000
    126    127    128     1   109.5000469 418.400000
    126    127    129     1   109.5000469 418.400000
    179    178    180     1   109.5000469 418.400000
    178    180    181     1   108.5000465 460.240000
    177    176    178     1   109.5000469 418.400000
    177    176    182     1   109.5000469 418.400000
    176    178    179     1   109.5000469 418.400000
    173    172    174     1   116.8000501 418.400000
    170    172    173     1   116.8000501 418.400000
    169    168    170     1   119.7000513 418.400000
    167    166    168     1   119.7000513 418.400000
    166    168    169     1   119.7000513 418.400000
    165    166    167     1   119.1000510 418.400000
    164    163    165     1   109.5000469 418.400000
    164    163    178     1   109.5000469 418.400000
    163    178    179     1   109.5000469 418.400000
    162    163    164     1   109.5000469 418.400000
    161    160    162     1   109.5000469 418.400000
    161    160    176     1   109.5000469 418.400000
    160    176    177     1   109.5000469 418.400000
    159    157    160     1   109.5000469 418.400000
    158    157    159     1   109.5000469 292.880000
    158    157    160     1   109.5000469 418.400000
    157    160    161     1   109.5000469 418.400000
    156    157    158     1   109.5000469 418.400000
    156    157    159     1   109.5000469 418.400000
    212    211    213     1   109.5000469 418.400000
    211    213    214     1   108.5000465 460.240000
    210    209    211     1   109.5000469 418.400000
    210    209    215     1   109.5000469 418.400000
    209    211    212     1   109.5000469 418.400000
    206    205    207     1   115.4500498 418.400000
    204    205    206     1   115.4500498 418.400000
    202    201    203     1   120.0000514 292.880000
    200    201    202     1   120.0000514 418.400000
    200    201    203     1   120.0000514 418.400000
    197    196    198     1   123.0500530 418.400000
    195    196    197     1   123.0500530 418.400000
    194    193    195     1   109.5000469 418.400000
    194    193    211     1   109.5000469 418.400000
    193    211    212     1   109.5000469 418.400000
    192    193    194     1   109.5000469 418.400000
    191    190    192     1   109.5000469 418.400000
    191    190    209     1   109.5000469 418.400000
    190    209    210     1   109.5000469 418.400000
    189    187    190     1   109.5000469 418.400000
    188    187    189     1   109.5000469 292.880000
    188    187    190     1   109.5000469 418.400000
    187    190    191     1   109.5000469 418.400000
    186    187    188     1   109.5000469 418.400000
    186    187    189     1   109.5000469 418.400000
    245    244    246     1   109.5000469 418.400000
    244    246    247     1   108.5000465 460.240000
    243    242    244     1   109.5000469 418.400000
    243    242    248     1   109.5000469 418.400000
    242    244    245     1   109.5000469 418.400000
    239    238    240     1   115.4500498 418.400000
    237    238    239     1   115.4500498 418.400000
    235    234    236     1   120.0000514 292.880000
    233    234    235     1   120.0000514 418.400000
    233    234    236     1   120.0000514 418.400000
    230    229    231     1   123.0500530 418.400000
    228    229    230     1   123.0500530 418.400000
    227    226    228     1   109.5000469 418.400000
    227    226    244     1   109.5000469 418.400000
    226    244    245     1   109.5000469 418.400000
    225    226    227     1   109.5000469 418.400000
    224    223    225     1   109.5000469 418.400000
    224    223    242     1   109.5000469 418.400000
    223    242    243     1   109.5000469 418.400000
    222    220    223     1   109.5000469 418.400000
    221    220    222     1   109.5000469 292.880000
    221    220    223     1   109.5000469 418.400000
    220    223    224     1   109.5000469 418.400000
    219    220    221     1   109.5000469 418.400000
    219    220    222     1   109.5000469 418.400000
    278    277    279     1   109.5000469 418.400000
    277    279    280     1   108.5000465 460.240000
    276    275    277     1   109.5000469 418.400000
    276    275    281     1   109.5000469 418.400000
    275    277    278     1   109.5000469 418.400000
    272    271    273     1   115.4500498 418.400000
    270    271    272     1   115.4500498 418.400000
    268    267    269     1   120.0000514 292.880000
    266    267    268     1   120.0000514 418.400000
    266    267    269     1   120.0000514 418.400000
    263    262    264     1   123.0500530 418.400000
    261    262    263     1   123.0500530 418.400000
    260    259    261     1   109.5000469 418.400000
    260    259    277     1   109.5000469 418.400000
    259    277    278     1   109.5000469 418.400000
    258    259    260     1   109.5000469 418.400000
    257    256    258     1   109.5000469 418.400000
    257    256    275     1   109.5000469 418.400000
    256    275    276     1   109.5000469 418.400000
    255    253    256     1   109.5000469 418.400000
    254    253    255     1   109.5000469 292.880000
    254    253    256     1   109.5000469 418.400000
    253    256    257     1   109.5000469 418.400000
    252    253    254     1   109.5000469 418.400000
    252    253    255     1   109.5000469 418.400000
    309    308    310     1   109.5000469 418.400000
    308    310    311     1   108.5000465 460.240000
    307    306    308     1   109.5000469 418.400000
    307    306    312     1   109.5000469 418.400000
    306    308    309     1   109.5000469 418.400000
    301    300    302     1   120.0000514 292.880000
    299    300    301     1   120.0000514 418.400000
    299    300    302     1   120.0000514 418.400000
    298    297    299     1   123.3000528 418.400000
    296    295    297     1   119.7000513 418.400000
    295    297    298     1   119.7000513 418.400000
    294    295    296     1   119.1000510 418.400000
    293    292    294     1   109.5000469 418.400000
    293    292    308     1   109.5000469 418.400000
    292    308    309     1   109.5000469 418.400000
    291    292    293     1   109.5000469 418.400000
    290    289    291     1   109.5000469 418.400000
    290    289    306     1   109.5000469 418.400000
    289    306    307     1   109.5000469 418.400000
    288    286    289     1   109.5000469 418.400000
    287    286    288     1   109.5000469 292.880000
    287    286    289     1   109.5000469 418.400000
    286    289    290     1   109.5000469 418.400000
    285    286    287     1   109.5000469 418.400000
    285    286    288     1   109.5000469 418.400000
    343    342    344     1   109.5000469 418.400000
    342    344    345     1   108.5000465 460.240000
    341    340    342     1   109.5000469 418.400000
    341    340    346     1   109.5000469 418.400000
    340    342    343     1   109.5000469 418.400000
    336    335    337     1   120.0000514 292.880000
    334    335    336     1   120.0000514 418.400000
    334    335    337     1   120.0000514 418.400000
    333    332    334     1   118.0000506 418.400000
    330    332    333     1   116.8000501 418.400000
    327    326    328     1   123.0500530 418.400000
    325    326    327     1   123.0500530 418.400000
    324    323    325     1   109.5000469 418.400000
    324    323    342     1   109.5000469 418.400000
    323    342    343     1   109.5000469 418.400000
    322    323    324     1   109.5000469 418.400000
    321    320    322     1   109.5000469 418.400000
    321    320    340     1   109.5000469 418.400000
    320    340    341     1   109.5000469 418.400000
    319    317    320     1   109.5000469 418.400000
    318    317    319     1   109.5000469 292.880000
    318    317    320     1   109.5000469 418.400000
    317    320    321     1   109.5000469 418.400000
    316    317    318     1   109.5000469 418.400000
    316    317    319     1   109.5000469 418.400000
    377    376    378     1   109.5000469 418.400000
    376    378    379     1   108.5000465 460.240000
    375    374    376     1   109.5000469 418.400000
    375    374    380     1   109.5000469 418.400000
    374    376    377     1   109.5000469 418.400000
    370    369    371     1   120.0000514 292.880000
    368    369    370     1   120.0000514 418.400000
    368    369    371     1   120.0000514 418.400000
    367    366    368     1   118.0000506 418.400000
    364    366    367     1   116.8000501 418.400000
    361    360    362     1   123.0500530 418.400000
    359    360    361     1   123.0500530 418.400000
    358    357    359     1   109.5000469 418.400000
    358    357    376     1   109.5000469 418.400000
    357    376    377     1   109.5000469 418.400000
    356    357    358     1   109.5000469 418.400000
    355    354    356     1   109.5000469 418.400000
    355    354    374     1   109.5000469 418.400000
    354    374    375     1   109.5000469 418.400000
    353    351    354     1   109.5000469 418.400000
    352    351    353     1   109.5000469 292.880000
    352    351    354     1   109.5000469 418.400000
    351    354    355     1   109.5000469 418.400000
    350    351    352     1   109.5000469 418.400000
    350    351    353     1   109.5000469 418.400000
    411    410    412     1   109.5000469 418.400000
    410    412    413     1   108.5000465 460.240000
    409    408    410     1   109.5000469 418.400000
    409    408    414     1   109.5000469 418.400000
    408    410    411     1   109.5000469 418.400000
    404    403    405     1   120.0000514 292.880000
    402    403    404     1   120.0000514 418.400000
    402    403    405     1   120.0000514 418.400000
    401    400    402     1   118.0000506 418.400000
    398    400    401     1   116.8000501 418.400000
    395    394    396     1   123.0500530 418.400000
    393    394    395     1   123.0500530 418.400000
    392    391    393     1   109.5000469 418.400000
    392    391    410     1   109.5000469 418.400000
    391    410    411     1   109.5000469 418.400000
    390    391    392     1   109.5000469 418.400000
    389    388    390     1   109.5000469 418.400000
    389    388    408     1   109.5000469 418.400000
    388    408    409     1   109.5000469 418.400000
    387    385    388     1   109.5000469 418.400000
    386    385    387     1   109.5000469 292.880000
    386    385    388     1   109.5000469 418.400000
    385    388    389     1   109.5000469 418.400000
    384    385    386     1   109.5000469 418.400000
    384    385    387     1   109.5000469 418.400000
    441    440    442     1   109.5000469 418.400000
    440    442    443     1   108.5000465 460.240000
    439    438    440     1   109.5000469 418.400000
    439    438    444     1   109.5000469 418.400000
    438    440    441     1   109.5000469 418.400000
    435    434    436     1   116.8000501 418.400000
    432    434    435     1   116.8000501 418.400000
    431    430    432     1   119.7000513 418.400000
    429    428    430     1   119.7000513 418.400000
    428    430    431     1   119.7000513 418.400000
    427    428    429     1   119.1000510 418.400000
    426    425    427     1   109.5000469 418.400000
    426    425    440     1   109.5000469 418.400000
    425    440    441     1   109.5000469 418.400000
    424    425    426     1   109.5000469 418.400000
    423    422    424     1   109.5000469 418.400000
    423    422    438     1   109.5000469 418.400000
    422    438    439     1   109.5000469 418.400000
    421    419    422     1   109.5000469 418.400000
    420    419    421     1   109.5000469 292.880000
    420    419    422     1   109.5000469 418.400000
    419    422    423     1   109.5000469 418.400000
    418    419    420     1   109.5000469 418.400000
    418    419    421     1   109.5000469 418.400000
    471    470    472     1   109.5000469 418.400000
    470    472    473     1   108.5000465 460.240000
    469    468    470     1   109.5000469 418.400000
    469    468    474     1   109.5000469 418.400000
    468    470    471     1   109.5000469 418.400000
    465    464    466     1   116.8000501 418.400000
    462    464    465     1   116.8000501 418.400000
    461    460    462     1   119.7000513 418.400000
    459    458    460     1   119.7000513 418.400000
    458    460    461     1   119.7000513 418.400000
    457    458    459     1   119.1000510 418.400000
    456    455    457     1   109.5000469 418.400000
    456    455    470     1   109.5000469 418.400000
    455    470    471     1   109.5000469 418.400000
    454    455    456     1   109.5000469 418.400000
    453    452    454     1   109.5000469 418.400000
    453    452    468     1   109.5000469 418.400000
    452    468    469     1   109.5000469 418.400000
    451    449    452     1   109.5000469 418.400000
    450    449    451     1   109.5000469 292.880000
    450    449    452     1   109.5000469 418.400000
    449    452    453     1   109.5000469 418.400000
    448    449    450     1   109.5000469 418.400000
    448    449    451     1   109.5000469 418.400000
    501    500    502     1   109.5000469 418.400000
    500    502    503     1   108.5000465 460.240000
    499    498    500     1   109.5000469 418.400000
    499    498    504     1   109.5000469 418.400000
    498    500    501     1   109.5000469 418.400000
    495    494    496     1   116.8000501 418.400000
    492    494    495     1   116.8000501 418.400000
    491    490    492     1   119.7000513 418.400000
    489    488    490     1   119.7000513 418.400000
    488    490    491     1   119.7000513 418.400000
    487    488    489     1   119.1000510 418.400000
    486    485    487     1   109.5000469 418.400000
    486    485    500     1   109.5000469 418.400000
    485    500    501     1   109.5000469 418.400000
    484    485    486     1   109.5000469 418.400000
    483    482    484     1   109.5000469 418.400000
    483    482    498     1   109.5000469 418.400000
    482    498    499     1   109.5000469 418.400000
    481    479    482     1   109.5000469 418.400000
    480    479    481     1   109.5000469 292.880000
    480    479    482     1   109.5000469 418.400000
    479    482    483     1   109.5000469 418.400000
    478    479    480     1   109.5000469 418.400000
    478    479    481     1   109.5000469 418.400000
    535    534    536     1   109.5000469 418.400000
    534    536    537     1   108.5000465 460.240000
    533    532    534     1   109.5000469 418.400000
    533    532    538     1   109.5000469 418.400000
    532    534    535     1   109.5000469 418.400000
    528    527    529     1   120.0000514 292.880000
    526    527    528     1   120.0000514 418.400000
    526    527    529     1   120.0000514 418.400000
    525    524    526     1   118.0000506 418.400000
    522    524    525     1   116.8000501 418.400000
    519    518    520     1   123.0500530 418.400000
    517    518    519     1   123.0500530 418.400000
    516    515    517     1   109.5000469 418.400000
    516    515    534     1   109.5000469 418.400000
    515    534    535     1   109.5000469 418.400000
    514    515    516     1   109.5000469 418.400000
    513    512    514     1   109.5000469 418.400000
    513    512    532     1   109.5000469 418.400000
    512    532    533     1   109.5000469 418.400000
    511    509    512     1   109.5000469 418.400000
    510    509    511     1   109.5000469 292.880000
    510    509    512     1   109.5000469 418.400000
    509    512    513     1   109.5000469 418.400000
    508    509    510     1   109.5000469 418.400000
    508    509    511     1   109.5000469 418.400000
    566    565    567     1   109.5000469 418.400000
    565    567    568     1   108.5000465 460.240000
    564    563    565     1   109.5000469 418.400000
    564    563    569     1   109.5000469 418.400000
    563    565    566     1   109.5000469 418.400000
    558    557    559     1   120.0000514 292.880000
    556    557    558     1   120.0000514 418.400000
    556    557    559     1   120.0000514 418.400000
    555    554    556     1   123.3000528 418.400000
    553    552    554     1   119.7000513 418.400000
    552    554    555     1   119.7000513 418.400000
    551    552    553     1   119.1000510 418.400000
    550    549    551     1   109.5000469 418.400000
    550    549    565     1   109.5000469 418.400000
    549    565    566     1   109.5000469 418.400000
    548    549    550     1   109.5000469 418.400000
    547    546    548     1   109.5000469 418.400000
    547    546    563     1   109.5000469 418.400000
    546    563    564     1   109.5000469 418.400000
    545    543    546     1   109.5000469 418.400000
    544    543    545     1   109.5000469 292.880000
    544    543    546     1   109.5000469 418.400000
    543    546    547     1   109.5000469 418.400000
    542    543    544     1   109.5000469 418.400000
    542    543    545     1   109.5000469 418.400000
    600    599    601     1   109.5000469 418.400000
    599    601    602     1   108.5000465 460.240000
    598    597    599     1   109.5000469 418.400000
    598    597    603     1   109.5000469 418.400000
    597    599    600     1   109.5000469 418.400000
    593    592    594     1   120.0000514 292.880000
    591    592    593     1   120.0000514 418.400000
    591    592    594     1   120.0000514 418.400000
    590    589    591     1   118.0000506 418.400000
    587    589    590     1   116.8000501 418.400000
    584    583    585     1   123.0500530 418.400000
    582    583    584     1   123.0500530 418.400000
    581    580    582     1   109.5000469 418.400000
    581    580    599     1   109.5000469 418.400000
    580    599    600     1   109.5000469 418.400000
    579    580    581     1   109.5000469 418.400000
    578    577    579     1   109.5000469 418.400000
    578    577    597     1   109.5000469 418.400000
    577    597    598     1   109.5000469 418.400000
    576    574    577     1   109.5000469 418.400000
    575    574    576     1   109.5000469 292.880000
    575    574    577     1   109.5000469 418.400000
    574    577    578     1   109.5000469 418.400000
    573    574    575     1   109.5000469 418.400000
    573    574    576     1   109.5000469 418.400000
    634    633    635     1   109.5000469 418.400000
    633    635    636     1   108.5000465 460.240000
    632    631    633     1   109.5000469 418.400000
    632    631    637     1   109.5000469 418.400000
    631    633    634     1   109.5000469 418.400000
    627    626    628     1   120.0000514 292.880000
    625    626    627     1   120.0000514 418.400000
    625    626    628     1   120.0000514 418.400000
    624    623    625     1   118.0000506 418.400000
    621    623    624     1   116.8000501 418.400000
    618    617    619     1   123.0500530 418.400000
    616    617    618     1   123.0500530 418.400000
    615    614    616     1   109.5000469 418.400000
    615    614    633     1   109.5000469 418.400000
    614    633    634     1   109.5000469 418.400000
    613    614    615     1   109.5000469 418.400000
    612    611    613     1   109.5000469 418.400000
    612    611    631     1   109.5000469 418.400000
    611    631    632     1   109.5000469 418.400000
    610    608    611     1   109.5000469 418.400000
    609    608    610     1   109.5000469 292.880000
    609    608    611     1   109.5000469 418.400000
    608    611    612     1   109.5000469 418.400000
    607    608    609     1   109.5000469 418.400000
    607    608    610     1   109.5000469 418.400000
    664    663    665     1   109.5000469 418.400000
    663    665    666     1   108.5000465 460.240000
    662    661    663     1   109.5000469 418.400000
    662    661    667     1   109.5000469 418.400000
    661    663    664     1   109.5000469 418.400000
    658    657    659     1   116.8000501 418.400000
    655    657    658     1   116.8000501 418.400000
    654    653    655     1   119.7000513 418.400000
    652    651    653     1   119.7000513 418.400000
    651    653    654     1   119.7000513 418.400000
    650    651    652     1   119.1000510 418.400000
    649    648    650     1   109.5000469 418.400000
    649    648    663     1   109.5000469 418.400000
    648    663    664     1   109.5000469 418.400000
    647    648    649     1   109.5000469 418.400000
    646    645    647     1   109.5000469 418.400000
    646    645    661     1   109.5000469 418.400000
    645    661    662     1   109.5000469 418.400000
    644    642    645     1   109.5000469 418.400000
    643    642    644     1   109.5000469 292.880000
    643    642    645     1   109.5000469 418.400000
    642    645    646     1   109.5000469 418.400000
    641    642    643     1   109.5000469 418.400000
    641    642    644     1   109.5000469 418.400000
    698    697    699     1   109.5000469 418.400000
    697    699    700     1   108.5000465 460.240000
    696    695    697     1   109.5000469 418.400000
    696    695    701     1   109.5000469 418.400000
    695    697    698     1   109.5000469 418.400000
    691    690    692     1   120.0000514 292.880000
    689    690    691     1   120.0000514 418.400000
    689    690    692     1   120.0000514 418.400000
    688    687    689     1   118.0000506 418.400000
    685    687    688     1   116.8000501 418.400000
    682    681    683     1   123.0500530 418.400000
    680    681    682     1   123.0500530 418.400000
    679    678    680     1   109.5000469 418.400000
    679    678    697     1   109.5000469 418.400000
    678    697    698     1   109.5000469 418.400000
    677    678    679     1   109.5000469 418.400000
    676    675    677     1   109.5000469 418.400000
    676    675    695     1   109.5000469 418.400000
    675    695    696     1   109.5000469 418.400000
    674    672    675     1   109.5000469 418.400000
    673    672    674     1   109.5000469 292.880000
    673    672    675     1   109.5000469 418.400000
    672    675    676     1   109.5000469 418.400000
    671    672    673     1   109.5000469 418.400000
    671    672    674     1   109.5000469 418.400000
    728    727    729     1   109.5000469 418.400000
    727    729    730     1   108.5000465 460.240000
    726    725    727     1   109.5000469 418.400000
    726    725    731     1   109.5000469 418.400000
    725    727    728     1   109.5000469 418.400000
    722    721    723     1   116.8000501 418.400000
    719    721    722     1   116.8000501 418.400000
    718    717    719     1   119.7000513 418.400000
    716    715    717     1   119.7000513 418.400000
    715    717    718     1   119.7000513 418.400000
    714    715    716     1   119.1000510 418.400000
    713    712    714     1   109.5000469 418.400000
    713    712    727     1   109.5000469 418.400000
    712    727    728     1   109.5000469 418.400000
    711    712    713     1   109.5000469 418.400000
    710    709    711     1   109.5000469 418.400000
    710    709    725     1   109.5000469 418.400000
    709    725    726     1   109.5000469 418.400000
    708    706    709     1   109.5000469 418.400000
    707    706    708     1   109.5000469 292.880000
    707    706    709     1   109.5000469 418.400000
    706    709    710     1   109.5000469 418.400000
    705    706    707     1   109.5000469 418.400000
    705    706    708     1   109.5000469 418.400000
    761    760    762     1   109.5000469 418.400000
    760    762    763     1   108.5000465 460.240000
    759    758    760     1   109.5000469 418.400000
    759    758    764     1   109.5000469 418.400000
    758    760    761     1   109.5000469 418.400000
    755    754    756     1   115.4500498 418.400000
    753    754    755     1   115.4500498 418.400000
    751    750    752     1   120.0000514 292.880000
    749    750    751     1   120.0000514 418.400000
    749    750    752     1   120.0000514 418.400000
    746    745    747     1   123.0500530 418.400000
    744    745    746     1   123.0500530 418.400000
    743    742    744     1   109.5000469 418.400000
    743    742    760     1   109.5000469 418.400000
    742    760    761     1   109.5000469 418.400000
    741    742    743     1   109.5000469 418.400000
    740    739    741     1   109.5000469 418.400000
    740    739    758     1   109.5000469 418.400000
    739    758    759     1   109.5000469 418.400000
    738    736    739     1   109.5000469 418.400000
    737    736    738     1   109.5000469 292.880000
    737    736    739     1   109.5000469 418.400000
    736    739    740     1   109.5000469 418.400000
    735    736    737     1   109.5000469 418.400000
    735    736    738     1   109.5000469 418.400000
    794    793    795     1   109.5000469 418.400000
    793    795    796     1   108.5000465 460.240000
    792    791    793     1   109.5000469 418.400000
    792    791    797     1   109.5000469 418.400000
    791    793    794     1   109.5000469 418.400000
    788    787    789     1   115.4500498 418.400000
    786    787    788     1   115.4500498 418.400000
    784    783    785     1   120.0000514 292.880000
    782    783    784     1   120.0000514 418.400000
    782    783    785     1   120.0000514 418.400000
    779    778    780     1   123.0500530 418.400000
    777    778    779     1   123.0500530 418.400000
    776    775    777     1   109.5000469 418.400000
    776    775    793     1   109.5000469 418.400000
    775    793    794     1   109.5000469 418.400000
    774    775    776     1   109.5000469 418.400000
    773    772    774     1   109.5000469 418.400000
    773    772    791     1   109.5000469 418.400000
    772    791    792     1   109.5000469 418.400000
    771    769    772     1   109.5000469 418.400000
    770    769    771     1   109.5000469 292.880000
    770    769    772     1   109.5000469 418.400000
    769    772    773     1   109.5000469 418.400000
    768    769    770     1   109.5000469 418.400000
    768    769    771     1   109.5000469 418.400000
    828    827    829     1   109.5000469 418.400000
    827    829    830     1   108.5000465 460.240000
    826    825    827     1   109.5000469 418.400000
    826    825    831     1   109.5000469 418.400000
    825    827    828     1   109.5000469 418.400000
    821    820    822     1   120.0000514 292.880000
    819    820    821     1   120.0000514 418.400000
    819    820    822     1   120.0000514 418.400000
    818    817    819     1   118.0000506 418.400000
    815    817    818     1   116.8000501 418.400000
    812    811    813     1   123.0500530 418.400000
    810    811    812     1   123.0500530 418.400000
    809    808    810     1   109.5000469 418.400000
    809    808    827     1   109.5000469 418.400000
    808    827    828     1   109.5000469 418.400000
    807    808    809     1   109.5000469 418.400000
    806    805    807     1   109.5000469 418.400000
    806    805    825     1   109.5000469 418.400000
    805    825    826     1   109.5000469 418.400000
    804    802    805     1   109.5000469 418.400000
    803    802    804     1   109.5000469 292.880000
    803    802    805     1   109.5000469 418.400000
    802    805    806     1   109.5000469 418.400000
    801    802    803     1   109.5000469 418.400000
    801    802    804     1   109.5000469 418.400000
    858    857    859     1   109.5000469 418.400000
    857    859    860     1   108.5000465 460.240000
    856    855    857     1   109.5000469 418.400000
    856    855    861     1   109.5000469 418.400000
    855    857    858     1   109.5000469 418.400000
    852    851    853     1   116.8000501 418.400000
    849    851    852     1   116.8000501 418.400000
    848    847    849     1   119.7000513 418.400000
    846    845    847     1   119.7000513 418.400000
    845    847    848     1   119.7000513 418.400000
    844    845    846     1   119.1000510 418.400000
    843    842    844     1   109.5000469 418.400000
    843    842    857     1   109.5000469 418.400000
    842    857    858     1   109.5000469 418.400000
    841    842    843     1   109.5000469 418.400000
    840    839    841     1   109.5000469 418.400000
    840    839    855     1   109.5000469 418.400000
    839    855    856     1   109.5000469 418.400000
    838    836    839     1   109.5000469 418.400000
    837    836    838     1   109.5000469 292.880000
    837    836    839     1   109.5000469 418.400000
    836    839    840     1   109.5000469 418.400000
    835    836    837     1   109.5000469 418.400000
    835    836    838     1   109.5000469 418.400000
    892    891    893     1   109.5000469 418.400000
    891    893    894     1   108.5000465 460.240000
    890    889    891     1   109.5000469 418.400000
    890    889    895     1   109.5000469 418.400000
    889    891    892     1   109.5000469 418.400000
    885    884    886     1   120.0000514 292.880000
    883    884    885     1   120.0000514 418.400000
    883    884    886     1   120.0000514 418.400000
    882    881    883     1   118.0000506 418.400000
    879    881    882     1   116.8000501 418.400000
    876    875    877     1   123.0500530 418.400000
    874    875    876     1   123.0500530 418.400000
    873    872    874     1   109.5000469 418.400000
    873    872    891     1   109.5000469 418.400000
    872    891    892     1   109.5000469 418.400000
    871    872    873     1   109.5000469 418.400000
    870    869    871     1   109.5000469 418.400000
    870    869    889     1   109.5000469 418.400000
    869    889    890     1   109.5000469 418.400000
    868    866    869     1   109.5000469 418.400000
    867    866    868     1   109.5000469 292.880000
    867    866    869     1   109.5000469 418.400000
    866    869    870     1   109.5000469 418.400000
    865    866    867     1   109.5000469 418.400000
    865    866    868     1   109.5000469 418.400000
    923    922    924     1   109.5000469 418.400000
    922    924    925     1   108.5000465 460.240000
    921    920    922     1   109.5000469 418.400000
    921    920    926     1   109.5000469 418.400000
    920    922    923     1   109.5000469 418.400000
    915    914    916     1   120.0000514 292.880000
    913    914    915     1   120.0000514 418.400000
    913    914    916     1   120.0000514 418.400000
    912    911    913     1   123.3000528 418.400000
    910    909    911     1   119.7000513 418.400000
    909    911    912     1   119.7000513 418.400000
    908    909    910     1   119.1000510 418.400000
    907    906    908     1   109.5000469 418.400000
    907    906    922     1   109.5000469 418.400000
    906    922    923     1   109.5000469 418.400000
    905    906    907     1   109.5000469 418.400000
    904    903    905     1   109.5000469 418.400000
    904    903    920     1   109.5000469 418.400000
    903    920    921     1   109.5000469 418.400000
    902    900    903     1   109.5000469 418.400000
    901    900    902     1   109.5000469 292.880000
    901    900    903     1   109.5000469 418.400000
    900    903    904     1   109.5000469 418.400000
    899    900    901     1   109.5000469 418.400000
    899    900    902     1   109.5000469 418.400000
    956    955    957     1   109.5000469 418.400000
    955    957    958     1   108.5000465 460.240000
    954    953    955     1   109.5000469 418.400000
    954    953    959     1   109.5000469 418.400000
    953    955    956     1   109.5000469 418.400000
    950    949    951     1   115.4500498 418.400000
    948    949    950     1   115.4500498 418.400000
    946    945    947     1   120.0000514 292.880000
    944    945    946     1   120.0000514 418.400000
    944    945    947     1   120.0000514 418.400000
    941    940    942     1   123.0500530 418.400000
    939    940    941     1   123.0500530 418.400000
    938    937    939     1   109.5000469 418.400000
    938    937    955     1   109.5000469 418.400000
    937    955    956     1   109.5000469 418.400000
    936    937    938     1   109.5000469 418.400000
    935    934    936     1   109.5000469 418.400000
    935    934    953     1   109.5000469 418.400000
    934    953    954     1   109.5000469 418.400000
    933    931    934     1   109.5000469 418.400000
    932    931    933     1   109.5000469 292.880000
    932    931    934     1   109.5000469 418.400000
    931    934    935     1   109.5000469 418.400000
    930    931    932     1   109.5000469 418.400000
    930    931    933     1   109.5000469 418.400000
    990    989    991     1   109.5000469 418.400000
    989    991    992     1   108.5000465 460.240000
    988    987    989     1   109.5000469 418.400000
    988    987    993     1   109.5000469 418.400000
    987    989    990     1   109.5000469 418.400000
    983    982    984     1   120.0000514 292.880000
    981    982    983     1   120.0000514 418.400000
    981    982    984     1   120.0000514 418.400000
    980    979    981     1   118.0000506 418.400000
    977    979    980     1   116.8000501 418.400000
    974    973    975     1   123.0500530 418.400000
    972    973    974     1   123.0500530 418.400000
    971    970    972     1   109.5000469 418.400000
    971    970    989     1   109.5000469 418.400000
    970    989    990     1   109.5000469 418.400000
    969    970    971     1   109.5000469 418.400000
    968    967    969     1   109.5000469 418.400000
    968    967    987     1   109.5000469 418.400000
    967    987    988     1   109.5000469 418.400000
    966    964    967     1   109.5000469 418.400000
    965    964    966     1   109.5000469 292.880000
    965    964    967     1   109.5000469 418.400000
    964    967    968     1   109.5000469 418.400000
    963    964    965     1   109.5000469 418.400000
    963    964    966     1   109.5000469 418.400000
   1021   1020   1022     1   109.5000469 418.400000
   1020   1022   1023     1   108.5000465 460.240000
   1019   1018   1020     1   109.5000469 418.400000
   1019   1018   1024     1   109.5000469 418.400000
   1018   1020   1021     1   109.5000469 418.400000
   1013   1012   1014     1   120.0000514 292.880000
   1011   1012   1013     1   120.0000514 418.400000
   1011   1012   1014     1   120.0000514 418.400000
   1010   1009   1011     1   123.3000528 418.400000
   1008   1007   1009     1   119.7000513 418.400000
   1007   1009   1010     1   119.7000513 418.400000
   1006   1007   1008     1   119.1000510 418.400000
   1005   1004   1006     1   109.5000469 418.400000
   1005   1004   1020     1   109.5000469 418.400000
   1004   1020   1021     1   109.5000469 418.400000
   1003   1004   1005     1   109.5000469 418.400000
   1002   1001   1003     1   109.5000469 418.400000
   1002   1001   1018     1   109.5000469 418.400000
   1001   1018   1019     1   109.5000469 418.400000
   1000    998   1001     1   109.5000469 418.400000
    999    998   1000     1   109.5000469 292.880000
    999    998   1001     1   109.5000469 418.400000
    998   1001   1002     1   109.5000469 418.400000
    997    998    999     1   109.5000469 418.400000
    997    998   1000     1   109.5000469 418.400000
   1052   1051   1053     1   109.5000469 418.400000
   1051   1053   1054     1   108.5000465 460.240000
   1050   1049   1051     1   109.5000469 418.400000
   1050   1049   1055     1   109.5000469 418.400000
   1049   1051   1052     1   109.5000469 418.400000
   1044   1043   1045     1   120.0000514 292.880000
   1042   1043   1044     1   120.0000514 418.400000
   1042   1043   1045     1   120.0000514 418.400000
   1041   1040   1042     1   123.3000528 418.400000
   1039   1038   1040     1   119.7000513 418.400000
   1038   1040   1041     1   119.7000513 418.400000
   1037   1038   1039     1   119.1000510 418.400000
   1036   1035   1037     1   109.5000469 418.400000
   1036   1035   1051     1   109.5000469 418.400000
   1035   1051   1052     1   109.5000469 418.400000
   1034   1035   1036     1   109.5000469 418.400000
   1033   1032   1034     1   109.5000469 418.400000
   1033   1032   1049     1   109.5000469 418.400000
   1032   1049   1050     1   109.5000469 418.400000
   1031   1029   1032     1   109.5000469 418.400000
   1030   1029   1031     1   109.5000469 292.880000
   1030   1029   1032     1   109.5000469 418.400000
   1029   1032   1033     1   109.5000469 418.400000
   1028   1029   1030     1   109.5000469 418.400000
   1028   1029   1031     1   109.5000469 418.400000
   1083   1082   1084     1   109.5000469 418.400000
   1082   1084   1085     1   108.5000465 460.240000
   1081   1080   1082     1   109.5000469 418.400000
   1081   1080   1086     1   109.5000469 418.400000
   1080   1082   1083     1   109.5000469 418.400000
   1075   1074   1076     1   120.0000514 292.880000
   1073   1074   1075     1   120.0000514 418.400000
   1073   1074   1076     1   120.0000514 418.400000
   1072   1071   1073     1   123.3000528 418.400000
   1070   1069   1071     1   119.7000513 418.400000
   1069   1071   1072     1   119.7000513 418.400000
   1068   1069   1070     1   119.1000510 418.400000
   1067   1066   1068     1   109.5000469 418.400000
   1067   1066   1082     1   109.5000469 418.400000
   1066   1082   1083     1   109.5000469 418.400000
   1065   1066   1067     1   109.5000469 418.400000
   1064   1063   1065     1   109.5000469 418.400000
   1064   1063   1080     1   109.5000469 418.400000
   1063   1080   1081     1   109.5000469 418.400000
   1062   1060   1063     1   109.5000469 418.400000
   1061   1060   1062     1   109.5000469 292.880000
   1061   1060   1063     1   109.5000469 418.400000
   1060   1063   1064     1   109.5000469 418.400000
   1059   1060   1061     1   109.5000469 418.400000
   1059   1060   1062     1   109.5000469 418.400000
   1117   1116   1118     1   109.5000469 418.400000
   1116   1118   1119     1   108.5000465 460.240000
   1115   1114   1116     1   109.5000469 418.400000
   1115   1114   1120     1   109.5000469 418.400000
   1114   1116   1117     1   109.5000469 418.400000
   1110   1109   1111     1   120.0000514 292.880000
   1108   1109   1110     1   120.0000514 418.400000
   1108   1109   1111     1   120.0000514 418.400000
   1107   1106   1108     1   118.0000506 418.400000
   1104   1106   1107     1   116.8000501 418.400000
   1101   1100   1102     1   123.0500530 418.400000
   1099   1100   1101     1   123.0500530 418.400000
   1098   1097   1099     1   109.5000469 418.400000
   1098   1097   1116     1   109.5000469 418.400000
   1097   1116   1117     1   109.5000469 418.400000
   1096   1097   1098     1   109.5000469 418.400000
   1095   1094   1096     1   109.5000469 418.400000
   1095   1094   1114     1   109.5000469 418.400000
   1094   1114   1115     1   109.5000469 418.400000
   1093   1091   1094     1   109.5000469 418.400000
   1092   1091   1093     1   109.5000469 292.880000
   1092   1091   1094     1   109.5000469 418.400000
   1091   1094   1095     1   109.5000469 418.400000
   1090   1091   1092     1   109.5000469 418.400000
   1090   1091   1093     1   109.5000469 418.400000
   1147   1146   1148     1   109.5000469 418.400000
   1146   1148   1149     1   108.5000465 460.240000
   1145   1144   1146     1   109.5000469 418.400000
   1145   1144   1150     1   109.5000469 418.400000
   1144   1146   1147     1   109.5000469 418.400000
   1141   1140   1142     1   116.8000501 418.400000
   1138   1140   1141     1   116.8000501 418.400000
   1137   1136   1138     1   119.7000513 418.400000
   1135   1134   1136     1   119.7000513 418.400000
   1134   1136   1137     1   119.7000513 418.400000
   1133   1134   1135     1   119.1000510 418.400000
   1132   1131   1133     1   109.5000469 418.400000
   1132   1131   1146     1   109.5000469 418.400000
   1131   1146   1147     1   109.5000469 418.400000
   1130   1131   1132     1   109.5000469 418.400000
   1129   1128   1130     1   109.5000469 418.400000
   1129   1128   1144     1   109.5000469 418.400000
   1128   1144   1145     1   109.5000469 418.400000
   1127   1125   1128     1   109.5000469 418.400000
   1126   1125   1127     1   109.5000469 292.880000
   1126   1125   1128     1   109.5000469 418.400000
   1125   1128   1129     1   109.5000469 418.400000
   1124   1125   1126     1   109.5000469 418.400000
   1124   1125   1127     1   109.5000469 418.400000
   1178   1177   1179     1   109.5000469 418.400000
   1177   1179   1180     1   108.5000465 460.240000
   1176   1175   1177     1   109.5000469 418.400000
   1176   1175   1181     1   109.5000469 418.400000
   1175   1177   1178     1   109.5000469 418.400000
   1170   1169   1171     1   120.0000514 292.880000
   1168   1169   1170     1   120.0000514 418.400000
   1168   1169   1171     1   120.0000514 418.400000
   1167   1166   1168     1   123.3000528 418.400000
   1165   1164   1166     1   119.7000513 418.400000
   1164   1166   1167     1   119.7000513 418.400000
   1163   1164   1165     1   119.1000510 418.400000
   1162   1161   1163     1   109.5000469 418.400000
   1162   1161   1177     1   109.5000469 418.400000
   1161   1177   1178     1   109.5000469 418.400000
   1160   1161   1162     1   109.5000469 418.400000
   1159   1158   1160     1   109.5000469 418.400000
   1159   1158   1175     1   109.5000469 418.400000
   1158   1175   1176     1   109.5000469 418.400000
   1157   1155   1158     1   109.5000469 418.400000
   1156   1155   1157     1   109.5000469 292.880000
   1156   1155   1158     1   109.5000469 418.400000
   1155   1158   1159     1   109.5000469 418.400000
   1154   1155   1156     1   109.5000469 418.400000
   1154   1155   1157     1   109.5000469 418.400000
   1208   1207   1209     1   109.5000469 418.400000
   1207   1209   1210     1   108.5000465 460.240000
   1206   1205   1207     1   109.5000469 418.400000
   1206   1205   1211     1   109.5000469 418.400000
   1205   1207   1208     1   109.5000469 418.400000
   1202   1201   1203     1   116.8000501 418.400000
   1199   1201   1202     1   116.8000501 418.400000
   1198   1197   1199     1   119.7000513 418.400000
   1196   1195   1197     1   119.7000513 418.400000
   1195   1197   1198     1   119.7000513 418.400000
   1194   1195   1196     1   119.1000510 418.400000
   1193   1192   1194     1   109.5000469 418.400000
   1193   1192   1207     1   109.5000469 418.400000
   1192   1207   1208     1   109.5000469 418.400000
   1191   1192   1193     1   109.5000469 418.400000
   1190   1189   1191     1   109.5000469 418.400000
   1190   1189   1205     1   109.5000469 418.400000
   1189   1205   1206     1   109.5000469 418.400000
   1188   1186   1189     1   109.5000469 418.400000
   1187   1186   1188     1   109.5000469 292.880000
   1187   1186   1189     1   109.5000469 418.400000
   1186   1189   1190     1   109.5000469 418.400000
   1185   1186   1187     1   109.5000469 418.400000
   1185   1186   1188     1   109.5000469 418.400000
   1238   1237   1239     1   109.5000469 418.400000
   1237   1239   1240     1   108.5000465 460.240000
   1236   1235   1237     1   109.5000469 418.400000
   1236   1235   1241     1   109.5000469 418.400000
   1235   1237   1238     1   109.5000469 418.400000
   1232   1231   1233     1   116.8000501 418.400000
   1229   1231   1232     1   116.8000501 418.400000
   1228   1227   1229     1   119.7000513 418.400000
   1226   1225   1227     1   119.7000513 418.400000
   1225   1227   1228     1   119.7000513 418.400000
   1224   1225   1226     1   119.1000510 418.400000
   1223   1222   1224     1   109.5000469 418.400000
   1223   1222   1237     1   109.5000469 418.400000
   1222   1237   1238     1   109.5000469 418.400000
   1221   1222   1223     1   109.5000469 418.400000
   1220   1219   1221     1   109.5000469 418.400000
   1220   1219   1235     1   109.5000469 418.400000
   1219   1235   1236     1   109.5000469 418.400000
   1218   1216   1219     1   109.5000469 418.400000
   1217   1216   1218     1   109.5000469 292.880000
   1217   1216   1219     1   109.5000469 418.400000
   1216   1219   1220     1   109.5000469 418.400000
   1215   1216   1217     1   109.5000469 418.400000
   1215   1216   1218     1   109.5000469 418.400000
   1271   1270   1272     1   109.5000469 418.400000
   1270   1272   1273     1   108.5000465 460.240000
   1269   1268   1270     1   109.5000469 418.400000
   1269   1268   1274     1   109.5000469 418.400000
   1268   1270   1271     1   109.5000469 418.400000
   1265   1264   1266     1   115.4500498 418.400000
   1263   1264   1265     1   115.4500498 418.400000
   1261   1260   1262     1   120.0000514 292.880000
   1259   1260   1261     1   120.0000514 418.400000
   1259   1260   1262     1   120.0000514 418.400000
   1256   1255   1257     1   123.0500530 418.400000
   1254   1255   1256     1   123.0500530 418.400000
   1253   1252   1254     1   109.5000469 418.400000
   1253   1252   1270     1   109.5000469 418.400000
   1252   1270   1271     1   109.5000469 418.400000
   1251   1252   1253     1   109.5000469 418.400000
   1250   1249   1251     1   109.5000469 418.400000
   1250   1249   1268     1   109.5000469 418.400000
   1249   1268   1269     1   109.5000469 418.400000
   1248   1246   1249     1   109.5000469 418.400000
   1247   1246   1248     1   109.5000469 292.880000
   1247   1246   1249     1   109.5000469 418.400000
   1246   1249   1250     1   109.5000469 418.400000
   1245   1246   1247     1   109.5000469 418.400000
   1245   1246   1248     1   109.5000469 418.400000
   1302   1301   1303     1   109.5000469 418.400000
   1301   1303   1304     1   108.5000465 460.240000
   1300   1299   1301     1   109.5000469 418.400000
   1300   1299   1305     1   109.5000469 418.400000
   1299   1301   1302     1   109.5000469 418.400000
   1294   1293   1295     1   120.0000514 292.880000
   1292   1293   1294     1   120.0000514 418.400000
   1292   1293   1295     1   120.0000514 418.400000
   1291   1290   1292     1   123.3000528 418.400000
   1289   1288   1290     1   119.7000513 418.400000
   1288   1290   1291     1   119.7000513 418.400000
   1287   1288   1289     1   119.1000510 418.400000
   1286   1285   1287     1   109.5000469 418.400000
   1286   1285   1301     1   109.5000469 418.400000
   1285   1301   1302     1   109.5000469 418.400000
   1284   1285   1286     1   109.5000469 418.400000
   1283   1282   1284     1   109.5000469 418.400000
   1283   1282   1299     1   109.5000469 418.400000
   1282   1299   1300     1   109.5000469 418.400000
   1281   1279   1282     1   109.5000469 418.400000
   1280   1279   1281     1   109.5000469 292.880000
   1280   1279   1282     1   109.5000469 418.400000
   1279   1282   1283     1   109.5000469 418.400000
   1278   1279   1280     1   109.5000469 418.400000
   1278   1279   1281     1   109.5000469 418.400000
   1335   1334   1336     1   109.5000469 418.400000
   1334   1336   1337     1   108.5000465 460.240000
   1333   1332   1334     1   109.5000469 418.400000
   1333   1332   1338     1   109.5000469 418.400000
   1332   1334   1335     1   109.5000469 418.400000
   1329   1328   1330     1   115.4500498 418.400000
   1327   1328   1329     1   115.4500498 418.400000
   1325   1324   1326     1   120.0000514 292.880000
   1323   1324   1325     1   120.0000514 418.400000
   1323   1324   1326     1   120.0000514 418.400000
   1320   1319   1321     1   123.0500530 418.400000
   1318   1319   1320     1   123.0500530 418.400000
   1317   1316   1318     1   109.5000469 418.400000
   1317   1316   1334     1   109.5000469 418.400000
   1316   1334   1335     1   109.5000469 418.400000
   1315   1316   1317     1   109.5000469 418.400000
   1314   1313   1315     1   109.5000469 418.400000
   1314   1313   1332     1   109.5000469 418.400000
   1313   1332   1333     1   109.5000469 418.400000
   1312   1310   1313     1   109.5000469 418.400000
   1311   1310   1312     1   109.5000469 292.880000
   1311   1310   1313     1   109.5000469 418.400000
   1310   1313   1314     1   109.5000469 418.400000
   1309   1310   1311     1   109.5000469 418.400000
   1309   1310   1312     1   109.5000469 418.400000
   1366   1365   1367     1   109.5000469 418.400000
   1365   1367   1368     1   108.5000465 460.240000
   1364   1363   1365     1   109.5000469 418.400000
   1364   1363   1369     1   109.5000469 418.400000
   1363   1365   1366     1   109.5000469 418.400000
   1358   1357   1359     1   120.0000514 292.880000
   1356   1357   1358     1   120.0000514 418.400000
   1356   1357   1359     1   120.0000514 418.400000
   1355   1354   1356     1   123.3000528 418.400000
   1353   1352   1354     1   119.7000513 418.400000
   1352   1354   1355     1   119.7000513 418.400000
   1351   1352   1353     1   119.1000510 418.400000
   1350   1349   1351     1   109.5000469 418.400000
   1350   1349   1365     1   109.5000469 418.400000
   1349   1365   1366     1   109.5000469 418.400000
   1348   1349   1350     1   109.5000469 418.400000
   1347   1346   1348     1   109.5000469 418.400000
   1347   1346   1363     1   109.5000469 418.400000
   1346   1363   1364     1   109.5000469 418.400000
   1345   1343   1346     1   109.5000469 418.400000
   1344   1343   1345     1   109.5000469 292.880000
   1344   1343   1346     1   109.5000469 418.400000
   1343   1346   1347     1   109.5000469 418.400000
   1342   1343   1344     1   109.5000469 418.400000
   1342   1343   1345     1   109.5000469 418.400000
   1397   1396   1398     1   109.5000469 418.400000
   1396   1398   1399     1   108.5000465 460.240000
   1395   1394   1396     1   109.5000469 418.400000
   1395   1394   1400     1   109.5000469 418.400000
   1394   1396   1397     1   109.5000469 418.400000
   1389   1388   1390     1   120.0000514 292.880000
   1387   1388   1389     1   120.0000514 418.400000
   1387   1388   1390     1   120.0000514 418.400000
   1386   1385   1387     1   123.3000528 418.400000
   1384   1383   1385     1   119.7000513 418.400000
   1383   1385   1386     1   119.7000513 418.400000
   1382   1383   1384     1   119.1000510 418.400000
   1381   1380   1382     1   109.5000469 418.400000
   1381   1380   1396     1   109.5000469 418.400000
   1380   1396   1397     1   109.5000469 418.400000
   1379   1380   1381     1   109.5000469 418.400000
   1378   1377   1379     1   109.5000469 418.400000
   1378   1377   1394     1   109.5000469 418.400000
   1377   1394   1395     1   109.5000469 418.400000
   1376   1374   1377     1   109.5000469 418.400000
   1375   1374   1376     1   109.5000469 292.880000
   1375   1374   1377     1   109.5000469 418.400000
   1374   1377   1378     1   109.5000469 418.400000
   1373   1374   1375     1   109.5000469 418.400000
   1373   1374   1376     1   109.5000469 418.400000
   1431   1430   1432     1   109.5000469 418.400000
   1430   1432   1433     1   108.5000465 460.240000
   1429   1428   1430     1   109.5000469 418.400000
   1429   1428   1434     1   109.5000469 418.400000
   1428   1430   1431     1   109.5000469 418.400000
   1424   1423   1425     1   120.0000514 292.880000
   1422   1423   1424     1   120.0000514 418.400000
   1422   1423   1425     1   120.0000514 418.400000
   1421   1420   1422     1   118.0000506 418.400000
   1418   1420   1421     1   116.8000501 418.400000
   1415   1414   1416     1   123.0500530 418.400000
   1413   1414   1415     1   123.0500530 418.400000
   1412   1411   1413     1   109.5000469 418.400000
   1412   1411   1430     1   109.5000469 418.400000
   1411   1430   1431     1   109.5000469 418.400000
   1410   1411   1412     1   109.5000469 418.400000
   1409   1408   1410     1   109.5000469 418.400000
   1409   1408   1428     1   109.5000469 418.400000
   1408   1428   1429     1   109.5000469 418.400000
   1407   1405   1408     1   109.5000469 418.400000
   1406   1405   1407     1   109.5000469 292.880000
   1406   1405   1408     1   109.5000469 418.400000
   1405   1408   1409     1   109.5000469 418.400000
   1404   1405   1406     1   109.5000469 418.400000
   1404   1405   1407     1   109.5000469 418.400000
   1461   1460   1462     1   109.5000469 418.400000
   1460   1462   1463     1   108.5000465 460.240000
   1459   1458   1460     1   109.5000469 418.400000
   1459   1458   1464     1   109.5000469 418.400000
   1458   1460   1461     1   109.5000469 418.400000
   1455   1454   1456     1   116.8000501 418.400000
   1452   1454   1455     1   116.8000501 418.400000
   1451   1450   1452     1   119.7000513 418.400000
   1449   1448   1450     1   119.7000513 418.400000
   1448   1450   1451     1   119.7000513 418.400000
   1447   1448   1449     1   119.1000510 418.400000
   1446   1445   1447     1   109.5000469 418.400000
   1446   1445   1460     1   109.5000469 418.400000
   1445   1460   1461     1   109.5000469 418.400000
   1444   1445   1446     1   109.5000469 418.400000
   1443   1442   1444     1   109.5000469 418.400000
   1443   1442   1458     1   109.5000469 418.400000
   1442   1458   1459     1   109.5000469 418.400000
   1441   1439   1442     1   109.5000469 418.400000
   1440   1439   1441     1   109.5000469 292.880000
   1440   1439   1442     1   109.5000469 418.400000
   1439   1442   1443     1   109.5000469 418.400000
   1438   1439   1440     1   109.5000469 418.400000
   1438   1439   1441     1   109.5000469 418.400000
   1495   1494   1496     1   109.5000469 418.400000
   1494   1496   1497     1   108.5000465 460.240000
   1493   1492   1494     1   109.5000469 418.400000
   1493   1492   1498     1   109.5000469 418.400000
   1492   1494   1495     1   109.5000469 418.400000
   1488   1487   1489     1   120.0000514 292.880000
   1486   1487   1488     1   120.0000514 418.400000
   1486   1487   1489     1   120.0000514 418.400000
   1485   1484   1486     1   118.0000506 418.400000
   1482   1484   1485     1   116.8000501 418.400000
   1479   1478   1480     1   123.0500530 418.400000
   1477   1478   1479     1   123.0500530 418.400000
   1476   1475   1477     1   109.5000469 418.400000
   1476   1475   1494     1   109.5000469 418.400000
   1475   1494   1495     1   109.5000469 418.400000
   1474   1475   1476     1   109.5000469 418.400000
   1473   1472   1474     1   109.5000469 418.400000
   1473   1472   1492     1   109.5000469 418.400000
   1472   1492   1493     1   109.5000469 418.400000
   1471   1469   1472     1   109.5000469 418.400000
   1470   1469   1471     1   109.5000469 292.880000
   1470   1469   1472     1   109.5000469 418.400000
   1469   1472   1473     1   109.5000469 418.400000
   1468   1469   1470     1   109.5000469 418.400000
   1468   1469   1471     1   109.5000469 418.400000
   1526   1525   1527     1   109.5000469 418.400000
   1525   1527   1528     1   108.5000465 460.240000
   1524   1523   1525     1   109.5000469 418.400000
   1524   1523   1529     1   109.5000469 418.400000
   1523   1525   1526     1   109.5000469 418.400000
   1518   1517   1519     1   120.0000514 292.880000
   1516   1517   1518     1   120.0000514 418.400000
   1516   1517   1519     1   120.0000514 418.400000
   1515   1514   1516     1   123.3000528 418.400000
   1513   1512   1514     1   119.7000513 418.400000
   1512   1514   1515     1   119.7000513 418.400000
   1511   1512   1513     1   119.1000510 418.400000
   1510   1509   1511     1   109.5000469 418.400000
   1510   1509   1525     1   109.5000469 418.400000
   1509   1525   1526     1   109.5000469 418.400000
   1508   1509   1510     1   109.5000469 418.400000
   1507   1506   1508     1   109.5000469 418.400000
   1507   1506   1523     1   109.5000469 418.400000
   1506   1523   1524     1   109.5000469 418.400000
   1505   1503   1506     1   109.5000469 418.400000
   1504   1503   1505     1   109.5000469 292.880000
   1504   1503   1506     1   109.5000469 418.400000
   1503   1506   1507     1   109.5000469 418.400000
   1502   1503   1504     1   109.5000469 418.400000
   1502   1503   1505     1   109.5000469 418.400000
   1560   1559   1561     1   109.5000469 418.400000
   1559   1561   1562     1   108.5000465 460.240000
   1558   1557   1559     1   109.5000469 418.400000
   1558   1557   1563     1   109.5000469 418.400000
   1557   1559   1560     1   109.5000469 418.400000
   1553   1552   1554     1   120.0000514 292.880000
   1551   1552   1553     1   120.0000514 418.400000
   1551   1552   1554     1   120.0000514 418.400000
   1550   1549   1551     1   118.0000506 418.400000
   1547   1549   1550     1   116.8000501 418.400000
   1544   1543   1545     1   123.0500530 418.400000
   1542   1543   1544     1   123.0500530 418.400000
   1541   1540   1542     1   109.5000469 418.400000
   1541   1540   1559     1   109.5000469 418.400000
   1540   1559   1560     1   109.5000469 418.400000
   1539   1540   1541     1   109.5000469 418.400000
   1538   1537   1539     1   109.5000469 418.400000
   1538   1537   1557     1   109.5000469 418.400000
   1537   1557   1558     1   109.5000469 418.400000
   1536   1534   1537     1   109.5000469 418.400000
   1535   1534   1536     1   109.5000469 292.880000
   1535   1534   1537     1   109.5000469 418.400000
   1534   1537   1538     1   109.5000469 418.400000
   1533   1534   1535     1   109.5000469 418.400000
   1533   1534   1536     1   109.5000469 418.400000
   1594   1593   1595     1   109.5000469 418.400000
   1593   1595   1596     1   108.5000465 460.240000
   1592   1591   1593     1   109.5000469 418.400000
   1592   1591   1597     1   109.5000469 418.400000
   1591   1593   1594     1   109.5000469 418.400000
   1587   1586   1588     1   120.0000514 292.880000
   1585   1586   1587     1   120.0000514 418.400000
   1585   1586   1588     1   120.0000514 418.400000
   1584   1583   1585     1   118.0000506 418.400000
   1581   1583   1584     1   116.8000501 418.400000
   1578   1577   1579     1   123.0500530 418.400000
   1576   1577   1578     1   123.0500530 418.400000
   1575   1574   1576     1   109.5000469 418.400000
   1575   1574   1593     1   109.5000469 418.400000
   1574   1593   1594     1   109.5000469 418.400000
   1573   1574   1575     1   109.5000469 418.400000
   1572   1571   1573     1   109.5000469 418.400000
   1572   1571   1591     1   109.5000469 418.400000
   1571   1591   1592     1   109.5000469 418.400000
   1570   1568   1571     1   109.5000469 418.400000
   1569   1568   1570     1   109.5000469 292.880000
   1569   1568   1571     1   109.5000469 418.400000
   1568   1571   1572     1   109.5000469 418.400000
   1567   1568   1569     1   109.5000469 418.400000
   1567   1568   1570     1   109.5000469 418.400000
   1625   1624   1626     1   109.5000469 418.400000
   1624   1626   1627     1   108.5000465 460.240000
   1623   1622   1624     1   109.5000469 418.400000
   1623   1622   1628     1   109.5000469 418.400000
   1622   1624   1625     1   109.5000469 418.400000
   1617   1616   1618     1   120.0000514 292.880000
   1615   1616   1617     1   120.0000514 418.400000
   1615   1616   1618     1   120.0000514 418.400000
   1614   1613   1615     1   123.3000528 418.400000
   1612   1611   1613     1   119.7000513 418.400000
   1611   1613   1614     1   119.7000513 418.400000
   1610   1611   1612     1   119.1000510 418.400000
   1609   1608   1610     1   109.5000469 418.400000
   1609   1608   1624     1   109.5000469 418.400000
   1608   1624   1625     1   109.5000469 418.400000
   1607   1608   1609     1   109.5000469 418.400000
   1606   1605   1607     1   109.5000469 418.400000
   1606   1605   1622     1   109.5000469 418.400000
   1605   1622   1623     1   109.5000469 418.400000
   1604   1602   1605     1   109.5000469 418.400000
   1603   1602   1604     1   109.5000469 292.880000
   1603   1602   1605     1   109.5000469 418.400000
   1602   1605   1606     1   109.5000469 418.400000
   1601   1602   1603     1   109.5000469 418.400000
   1601   1602   1604     1   109.5000469 418.400000
   1658   1657   1659     1   109.5000469 418.400000
   1657   1659   1660     1   108.5000465 460.240000
   1656   1655   1657     1   109.5000469 418.400000
   1656   1655   1661     1   109.5000469 418.400000
   1655   1657   1658     1   109.5000469 418.400000
   1652   1651   1653     1   115.4500498 418.400000
   1650   1651   1652     1   115.4500498 418.400000
   1648   1647   1649     1   120.0000514 292.880000
   1646   1647   1648     1   120.0000514 418.400000
   1646   1647   1649     1   120.0000514 418.400000
   1643   1642   1644     1   123.0500530 418.400000
   1641   1642   1643     1   123.0500530 418.400000
   1640   1639   1641     1   109.5000469 418.400000
   1640   1639   1657     1   109.5000469 418.400000
   1639   1657   1658     1   109.5000469 418.400000
   1638   1639   1640     1   109.5000469 418.400000
   1637   1636   1638     1   109.5000469 418.400000
   1637   1636   1655     1   109.5000469 418.400000
   1636   1655   1656     1   109.5000469 418.400000
   1635   1633   1636     1   109.5000469 418.400000
   1634   1633   1635     1   109.5000469 292.880000
   1634   1633   1636     1   109.5000469 418.400000
   1633   1636   1637     1   109.5000469 418.400000
   1632   1633   1634     1   109.5000469 418.400000
   1632   1633   1635     1   109.5000469 418.400000
   1689   1688   1690     1   109.5000469 418.400000
   1688   1690   1691     1   108.5000465 460.240000
   1687   1686   1688     1   109.5000469 418.400000
   1687   1686   1692     1   109.5000469 418.400000
   1686   1688   1689     1   109.5000469 418.400000
   1681   1680   1682     1   120.0000514 292.880000
   1679   1680   1681     1   120.0000514 418.400000
   1679   1680   1682     1   120.0000514 418.400000
   1678   1677   1679     1   123.3000528 418.400000
   1676   1675   1677     1   119.7000513 418.400000
   1675   1677   1678     1   119.7000513 418.400000
   1674   1675   1676     1   119.1000510 418.400000
   1673   1672   1674     1   109.5000469 418.400000
   1673   1672   1688     1   109.5000469 418.400000
   1672   1688   1689     1   109.5000469 418.400000
   1671   1672   1673     1   109.5000469 418.400000
   1670   1669   1671     1   109.5000469 418.400000
   1670   1669   1686     1   109.5000469 418.400000
   1669   1686   1687     1   109.5000469 418.400000
   1668   1666   1669     1   109.5000469 418.400000
   1667   1666   1668     1   109.5000469 292.880000
   1667   1666   1669     1   109.5000469 418.400000
   1666   1669   1670     1   109.5000469 418.400000
   1665   1666   1667     1   109.5000469 418.400000
   1665   1666   1668     1   109.5000469 418.400000
   1722   1721   1723     1   109.5000469 418.400000
   1721   1723   1724     1   108.5000465 460.240000
   1720   1719   1721     1   109.5000469 418.400000
   1720   1719   1725     1   109.5000469 418.400000
   1719   1721   1722     1   109.5000469 418.400000
   1716   1715   1717     1   115.4500498 418.400000
   1714   1715   1716     1   115.4500498 418.400000
   1712   1711   1713     1   120.0000514 292.880000
   1710   1711   1712     1   120.0000514 418.400000
   1710   1711   1713     1   120.0000514 418.400000
   1707   1706   1708     1   123.0500530 418.400000
   1705   1706   1707     1   123.0500530 418.400000
   1704   1703   1705     1   109.5000469 418.400000
   1704   1703   1721     1   109.5000469 418.400000
   1703   1721   1722     1   109.5000469 418.400000
   1702   1703   1704     1   109.5000469 418.400000
   1701   1700   1702     1   109.5000469 418.400000
   1701   1700   1719     1   109.5000469 418.400000
   1700   1719   1720     1   109.5000469 418.400000
   1699   1697   1700     1   109.5000469 418.400000
   1698   1697   1699     1   109.5000469 292.880000
   1698   1697   1700     1   109.5000469 418.400000
   1697   1700   1701     1   109.5000469 418.400000
   1696   1697   1698     1   109.5000469 418.400000
   1696   1697   1699     1   109.5000469 418.400000
   1756   1755   1757     1   109.5000469 418.400000
   1755   1757   1758     1   108.5000465 460.240000
   1754   1753   1755     1   109.5000469 418.400000
   1754   1753   1759     1   109.5000469 418.400000
   1753   1755   1756     1   109.5000469 418.400000
   1749   1748   1750     1   120.0000514 292.880000
   1747   1748   1749     1   120.0000514 418.400000
   1747   1748   1750     1   120.0000514 418.400000
   1746   1745   1747     1   118.0000506 418.400000
   1743   1745   1746     1   116.8000501 418.400000
   1740   1739   1741     1   123.0500530 418.400000
   1738   1739   1740     1   123.0500530 418.400000
   1737   1736   1738     1   109.5000469 418.400000
   1737   1736   1755     1   109.5000469 418.400000
   1736   1755   1756     1   109.5000469 418.400000
   1735   1736   1737     1   109.5000469 418.400000
   1734   1733   1735     1   109.5000469 418.400000
   1734   1733   1753     1   109.5000469 418.400000
   1733   1753   1754     1   109.5000469 418.400000
   1732   1730   1733     1   109.5000469 418.400000
   1731   1730   1732     1   109.5000469 292.880000
   1731   1730   1733     1   109.5000469 418.400000
   1730   1733   1734     1   109.5000469 418.400000
   1729   1730   1731     1   109.5000469 418.400000
   1729   1730   1732     1   109.5000469 418.400000
   1790   1789   1791     1   109.5000469 418.400000
   1789   1791   1792     1   108.5000465 460.240000
   1788   1787   1789     1   109.5000469 418.400000
   1788   1787   1793     1   109.5000469 418.400000
   1787   1789   1790     1   109.5000469 418.400000
   1783   1782   1784     1   120.0000514 292.880000
   1781   1782   1783     1   120.0000514 418.400000
   1781   1782   1784     1   120.0000514 418.400000
   1780   1779   1781     1   118.0000506 418.400000
   1777   1779   1780     1   116.8000501 418.400000
   1774   1773   1775     1   123.0500530 418.400000
   1772   1773   1774     1   123.0500530 418.400000
   1771   1770   1772     1   109.5000469 418.400000
   1771   1770   1789     1   109.5000469 418.400000
   1770   1789   1790     1   109.5000469 418.400000
   1769   1770   1771     1   109.5000469 418.400000
   1768   1767   1769     1   109.5000469 418.400000
   1768   1767   1787     1   109.5000469 418.400000
   1767   1787   1788     1   109.5000469 418.400000
   1766   1764   1767     1   109.5000469 418.400000
   1765   1764   1766     1   109.5000469 292.880000
   1765   1764   1767     1   109.5000469 418.400000
   1764   1767   1768     1   109.5000469 418.400000
   1763   1764   1765     1   109.5000469 418.400000
   1763   1764   1766     1   109.5000469 418.400000
   1821   1820   1822     1   109.5000469 418.400000
   1820   1822   1823     1   108.5000465 460.240000
   1819   1818   1820     1   109.5000469 418.400000
   1819   1818   1824     1   109.5000469 418.400000
   1818   1820   1821     1   109.5000469 418.400000
   1813   1812   1814     1   120.0000514 292.880000
   1811   1812   1813     1   120.0000514 418.400000
   1811   1812   1814     1   120.0000514 418.400000
   1810   1809   1811     1   123.3000528 418.400000
   1808   1807   1809     1   119.7000513 418.400000
   1807   1809   1810     1   119.7000513 418.400000
   1806   1807   1808     1   119.1000510 418.400000
   1805   1804   1806     1   109.5000469 418.400000
   1805   1804   1820     1   109.5000469 418.400000
   1804   1820   1821     1   109.5000469 418.400000
   1803   1804   1805     1   109.5000469 418.400000
   1802   1801   1803     1   109.5000469 418.400000
   1802   1801   1818     1   109.5000469 418.400000
   1801   1818   1819     1   109.5000469 418.400000
   1800   1798   1801     1   109.5000469 418.400000
   1799   1798   1800     1   109.5000469 292.880000
   1799   1798   1801     1   109.5000469 418.400000
   1798   1801   1802     1   109.5000469 418.400000
   1797   1798   1799     1   109.5000469 418.400000
   1797   1798   1800     1   109.5000469 418.400000
   1854   1853   1855     1   109.5000469 418.400000
   1853   1855   1856     1   108.5000465 460.240000
   1852   1851   1853     1   109.5000469 418.400000
   1852   1851   1857     1   109.5000469 418.400000
   1851   1853   1854     1   109.5000469 418.400000
   1848   1847   1849     1   115.4500498 418.400000
   1846   1847   1848     1   115.4500498 418.400000
   1844   1843   1845     1   120.0000514 292.880000
   1842   1843   1844     1   120.0000514 418.400000
   1842   1843   1845     1   120.0000514 418.400000
   1839   1838   1840     1   123.0500530 418.400000
   1837   1838   1839     1   123.0500530 418.400000
   1836   1835   1837     1   109.5000469 418.400000
   1836   1835   1853     1   109.5000469 418.400000
   1835   1853   1854     1   109.5000469 418.400000
   1834   1835   1836     1   109.5000469 418.400000
   1833   1832   1834     1   109.5000469 418.400000
   1833   1832   1851     1   109.5000469 418.400000
   1832   1851   1852     1   109.5000469 418.400000
   1831   1829   1832     1   109.5000469 418.400000
   1830   1829   1831     1   109.5000469 292.880000
   1830   1829   1832     1   109.5000469 418.400000
   1829   1832   1833     1   109.5000469 418.400000
   1828   1829   1830     1   109.5000469 418.400000
   1828   1829   1831     1   109.5000469 418.400000
   1885   1884   1886     1   109.5000469 418.400000
   1884   1886   1887     1   108.5000465 460.240000
   1883   1882   1884     1   109.5000469 418.400000
   1883   1882   1888     1   109.5000469 418.400000
   1882   1884   1885     1   109.5000469 418.400000
   1877   1876   1878     1   120.0000514 292.880000
   1875   1876   1877     1   120.0000514 418.400000
   1875   1876   1878     1   120.0000514 418.400000
   1874   1873   1875     1   123.3000528 418.400000
   1872   1871   1873     1   119.7000513 418.400000
   1871   1873   1874     1   119.7000513 418.400000
   1870   1871   1872     1   119.1000510 418.400000
   1869   1868   1870     1   109.5000469 418.400000
   1869   1868   1884     1   109.5000469 418.400000
   1868   1884   1885     1   109.5000469 418.400000
   1867   1868   1869     1   109.5000469 418.400000
   1866   1865   1867     1   109.5000469 418.400000
   1866   1865   1882     1   109.5000469 418.400000
   1865   1882   1883     1   109.5000469 418.400000
   1864   1862   1865     1   109.5000469 418.400000
   1863   1862   1864     1   109.5000469 292.880000
   1863   1862   1865     1   109.5000469 418.400000
   1862   1865   1866     1   109.5000469 418.400000
   1861   1862   1863     1   109.5000469 418.400000
   1861   1862   1864     1   109.5000469 418.400000
   1915   1914   1916     1   109.5000469 418.400000
   1914   1916   1917     1   108.5000465 460.240000
   1913   1912   1914     1   109.5000469 418.400000
   1913   1912   1918     1   109.5000469 418.400000
   1912   1914   1915     1   109.5000469 418.400000
   1909   1908   1910     1   116.8000501 418.400000
   1906   1908   1909     1   116.8000501 418.400000
   1905   1904   1906     1   119.7000513 418.400000
   1903   1902   1904     1   119.7000513 418.400000
   1902   1904   1905     1   119.7000513 418.400000
   1901   1902   1903     1   119.1000510 418.400000
   1900   1899   1901     1   109.5000469 418.400000
   1900   1899   1914     1   109.5000469 418.400000
   1899   1914   1915     1   109.5000469 418.400000
   1898   1899   1900     1   109.5000469 418.400000
   1897   1896   1898     1   109.5000469 418.400000
   1897   1896   1912     1   109.5000469 418.400000
   1896   1912   1913     1   109.5000469 418.400000
   1895   1893   1896     1   109.5000469 418.400000
   1894   1893   1895     1   109.5000469 292.880000
   1894   1893   1896     1   109.5000469 418.400000
   1893   1896   1897     1   109.5000469 418.400000
   1892   1893   1894     1   109.5000469 418.400000
   1892   1893   1895     1   109.5000469 418.400000
   1948   1947   1949     1   109.5000469 418.400000
   1947   1949   1950     1   108.5000465 460.240000
   1946   1945   1947     1   109.5000469 418.400000
   1946   1945   1951     1   109.5000469 418.400000
   1945   1947   1948     1   109.5000469 418.400000
   1942   1941   1943     1   115.4500498 418.400000
   1940   1941   1942     1   115.4500498 418.400000
   1938   1937   1939     1   120.0000514 292.880000
   1936   1937   1938     1   120.0000514 418.400000
   1936   1937   1939     1   120.0000514 418.400000
   1933   1932   1934     1   123.0500530 418.400000
   1931   1932   1933     1   123.0500530 418.400000
   1930   1929   1931     1   109.5000469 418.400000
   1930   1929   1947     1   109.5000469 418.400000
   1929   1947   1948     1   109.5000469 418.400000
   1928   1929   1930     1   109.5000469 418.400000
   1927   1926   1928     1   109.5000469 418.400000
   1927   1926   1945     1   109.5000469 418.400000
   1926   1945   1946     1   109.5000469 418.400000
   1925   1923   1926     1   109.5000469 418.400000
   1924   1923   1925     1   109.5000469 292.880000
   1924   1923   1926     1   109.5000469 418.400000
   1923   1926   1927     1   109.5000469 418.400000
   1922   1923   1924     1   109.5000469 418.400000
   1922   1923   1925     1   109.5000469 418.400000
   1982   1981   1983     1   109.5000469 418.400000
   1981   1983   1984     1   108.5000465 460.240000
   1980   1979   1981     1   109.5000469 418.400000
   1980   1979   1985     1   109.5000469 418.400000
   1979   1981   1982     1   109.5000469 418.400000
   1975   1974   1976     1   120.0000514 292.880000
   1973   1974   1975     1   120.0000514 418.400000
   1973   1974   1976     1   120.0000514 418.400000
   1972   1971   1973     1   118.0000506 418.400000
   1969   1971   1972     1   116.8000501 418.400000
   1966   1965   1967     1   123.0500530 418.400000
   1964   1965   1966     1   123.0500530 418.400000
   1963   1962   1964     1   109.5000469 418.400000
   1963   1962   1981     1   109.5000469 418.400000
   1962   1981   1982     1   109.5000469 418.400000
   1961   1962   1963     1   109.5000469 418.400000
   1960   1959   1961     1   109.5000469 418.400000
   1960   1959   1979     1   109.5000469 418.400000
   1959   1979   1980     1   109.5000469 418.400000
   1958   1956   1959     1   109.5000469 418.400000
   1957   1956   1958     1   109.5000469 292.880000
   1957   1956   1959     1   109.5000469 418.400000
   1956   1959   1960     1   109.5000469 418.400000
   1955   1956   1957     1   109.5000469 418.400000
   1955   1956   1958     1   109.5000469 418.400000
   2012   2011   2013     1   109.5000469 418.400000
   2011   2013   2014     1   108.5000465 460.240000
   2010   2009   2011     1   109.5000469 418.400000
   2010   2009   2015     1   109.5000469 418.400000
   2009   2011   2012     1   109.5000469 418.400000
   2006   2005   2007     1   116.8000501 418.400000
   2003   2005   2006     1   116.8000501 418.400000
   2002   2001   2003     1   119.7000513 418.400000
   2000   1999   2001     1   119.7000513 418.400000
   1999   2001   2002     1   119.7000513 418.400000
   1998   1999   2000     1   119.1000510 418.400000
   1997   1996   1998     1   109.5000469 418.400000
   1997   1996   2011     1   109.5000469 418.400000
   1996   2011   2012     1   109.5000469 418.400000
   1995   1996   1997     1   109.5000469 418.400000
   1994   1993   1995     1   109.5000469 418.400000
   1994   1993   2009     1   109.5000469 418.400000
   1993   2009   2010     1   109.5000469 418.400000
   1992   1990   1993     1   109.5000469 418.400000
   1991   1990   1992     1   109.5000469 292.880000
   1991   1990   1993     1   109.5000469 418.400000
   1990   1993   1994     1   109.5000469 418.400000
   1989   1990   1991     1   109.5000469 418.400000
   1989   1990   1992     1   109.5000469 418.400000
   2045   2044   2046     1   109.5000469 418.400000
   2044   2046   2047     1   108.5000465 460.240000
   2043   2042   2044     1   109.5000469 418.400000
   2043   2042   2048     1   109.5000469 418.400000
   2042   2044   2045     1   109.5000469 418.400000
   2039   2038   2040     1   115.4500498 418.400000
   2037   2038   2039     1   115.4500498 418.400000
   2035   2034   2036     1   120.0000514 292.880000
   2033   2034   2035     1   120.0000514 418.400000
   2033   2034   2036     1   120.0000514 418.400000
   2030   2029   2031     1   123.0500530 418.400000
   2028   2029   2030     1   123.0500530 418.400000
   2027   2026   2028     1   109.5000469 418.400000
   2027   2026   2044     1   109.5000469 418.400000
   2026   2044   2045     1   109.5000469 418.400000
   2025   2026   2027     1   109.5000469 418.400000
   2024   2023   2025     1   109.5000469 418.400000
   2024   2023   2042     1   109.5000469 418.400000
   2023   2042   2043     1   109.5000469 418.400000
   2022   2020   2023     1   109.5000469 418.400000
   2021   2020   2022     1   109.5000469 292.880000
   2021   2020   2023     1   109.5000469 418.400000
   2020   2023   2024     1   109.5000469 418.400000
   2019   2020   2021     1   109.5000469 418.400000
   2019   2020   2022     1   109.5000469 418.400000
   2076   2075   2077     1   109.5000469 418.400000
   2075   2077   2078     1   108.5000465 460.240000
   2074   2073   2075     1   109.5000469 418.400000
   2074   2073   2079     1   109.5000469 418.400000
   2073   2075   2076     1   109.5000469 418.400000
   2068   2067   2069     1   120.0000514 292.880000
   2066   2067   2068     1   120.0000514 418.400000
   2066   2067   2069     1   120.0000514 418.400000
   2065   2064   2066     1   123.3000528 418.400000
   2063   2062   2064     1   119.7000513 418.400000
   2062   2064   2065     1   119.7000513 418.400000
   2061   2062   2063     1   119.1000510 418.400000
   2060   2059   2061     1   109.5000469 418.400000
   2060   2059   2075     1   109.5000469 418.400000
   2059   2075   2076     1   109.5000469 418.400000
   2058   2059   2060     1   109.5000469 418.400000
   2057   2056   2058     1   109.5000469 418.400000
   2057   2056   2073     1   109.5000469 418.400000
   2056   2073   2074     1   109.5000469 418.400000
   2055   2053   2056     1   109.5000469 418.400000
   2054   2053   2055     1   109.5000469 292.880000
   2054   2053   2056     1   109.5000469 418.400000
   2053   2056   2057     1   109.5000469 418.400000
   2052   2053   2054     1   109.5000469 418.400000
   2052   2053   2055     1   109.5000469 418.400000
   2106   2105   2107     1   109.5000469 418.400000
   2105   2107   2108     1   108.5000465 460.240000
   2104   2103   2105     1   109.5000469 418.400000
   2104   2103   2109     1   109.5000469 418.400000
   2103   2105   2106     1   109.5000469 418.400000
   2100   2099   2101     1   116.8000501 418.400000
   2097   2099   2100     1   116.8000501 418.400000
   2096   2095   2097     1   119.7000513 418.400000
   2094   2093   2095     1   119.7000513 418.400000
   2093   2095   2096     1   119.7000513 418.400000
   2092   2093   2094     1   119.1000510 418.400000
   2091   2090   2092     1   109.5000469 418.400000
   2091   2090   2105     1   109.5000469 418.400000
   2090   2105   2106     1   109.5000469 418.400000
   2089   2090   2091     1   109.5000469 418.400000
   2088   2087   2089     1   109.5000469 418.400000
   2088   2087   2103     1   109.5000469 418.400000
   2087   2103   2104     1   109.5000469 418.400000
   2086   2084   2087     1   109.5000469 418.400000
   2085   2084   2086     1   109.5000469 292.880000
   2085   2084   2087     1   109.5000469 418.400000
   2084   2087   2088     1   109.5000469 418.400000
   2083   2084   2085     1   109.5000469 418.400000
   2083   2084   2086     1   109.5000469 418.400000
   2140   2139   2141     1   109.5000469 418.400000
   2139   2141   2142     1   108.5000465 460.240000
   2138   2137   2139     1   109.5000469 418.400000
   2138   2137   2143     1   109.5000469 418.400000
   2137   2139   2140     1   109.5000469 418.400000
   2133   2132   2134     1   120.0000514 292.880000
   2131   2132   2133     1   120.0000514 418.400000
   2131   2132   2134     1   120.0000514 418.400000
   2130   2129   2131     1   118.0000506 418.400000
   2127   2129   2130     1   116.8000501 418.400000
   2124   2123   2125     1   123.0500530 418.400000
   2122   2123   2124     1   123.0500530 418.400000
   2121   2120   2122     1   109.5000469 418.400000
   2121   2120   2139     1   109.5000469 418.400000
   2120   2139   2140     1   109.5000469 418.400000
   2119   2120   2121     1   109.5000469 418.400000
   2118   2117   2119     1   109.5000469 418.400000
   2118   2117   2137     1   109.5000469 418.400000
   2117   2137   2138     1   109.5000469 418.400000
   2116   2114   2117     1   109.5000469 418.400000
   2115   2114   2116     1   109.5000469 292.880000
   2115   2114   2117     1   109.5000469 418.400000
   2114   2117   2118     1   109.5000469 418.400000
   2113   2114   2115     1   109.5000469 418.400000
   2113   2114   2116     1   109.5000469 418.400000
   2173   2172   2174     1   109.5000469 418.400000
   2172   2174   2175     1   108.5000465 460.240000
   2171   2170   2172     1   109.5000469 418.400000
   2171   2170   2176     1   109.5000469 418.400000
   2170   2172   2173     1   109.5000469 418.400000
   2167   2166   2168     1   115.4500498 418.400000
   2165   2166   2167     1   115.4500498 418.400000
   2163   2162   2164     1   120.0000514 292.880000
   2161   2162   2163     1   120.0000514 418.400000
   2161   2162   2164     1   120.0000514 418.400000
   2158   2157   2159     1   123.0500530 418.400000
   2156   2157   2158     1   123.0500530 418.400000
   2155   2154   2156     1   109.5000469 418.400000
   2155   2154   2172     1   109.5000469 418.400000
   2154   2172   2173     1   109.5000469 418.400000
   2153   2154   2155     1   109.5000469 418.400000
   2152   2151   2153     1   109.5000469 418.400000
   2152   2151   2170     1   109.5000469 418.400000
   2151   2170   2171     1   109.5000469 418.400000
   2150   2148   2151     1   109.5000469 418.400000
   2149   2148   2150     1   109.5000469 292.880000
   2149   2148   2151     1   109.5000469 418.400000
   2148   2151   2152     1   109.5000469 418.400000
   2147   2148   2149     1   109.5000469 418.400000
   2147   2148   2150     1   109.5000469 418.400000
   2203   2202   2204     1   109.5000469 418.400000
   2202   2204   2205     1   108.5000465 460.240000
   2201   2200   2202     1   109.5000469 418.400000
   2201   2200   2206     1   109.5000469 418.400000
   2200   2202   2203     1   109.5000469 418.400000
   2197   2196   2198     1   116.8000501 418.400000
   2194   2196   2197     1   116.8000501 418.400000
   2193   2192   2194     1   119.7000513 418.400000
   2191   2190   2192     1   119.7000513 418.400000
   2190   2192   2193     1   119.7000513 418.400000
   2189   2190   2191     1   119.1000510 418.400000
   2188   2187   2189     1   109.5000469 418.400000
   2188   2187   2202     1   109.5000469 418.400000
   2187   2202   2203     1   109.5000469 418.400000
   2186   2187   2188     1   109.5000469 418.400000
   2185   2184   2186     1   109.5000469 418.400000
   2185   2184   2200     1   109.5000469 418.400000
   2184   2200   2201     1   109.5000469 418.400000
   2183   2181   2184     1   109.5000469 418.400000
   2182   2181   2183     1   109.5000469 292.880000
   2182   2181   2184     1   109.5000469 418.400000
   2181   2184   2185     1   109.5000469 418.400000
   2180   2181   2182     1   109.5000469 418.400000
   2180   2181   2183     1   109.5000469 418.400000
   2237   2236   2238     1   109.5000469 418.400000
   2236   2238   2239     1   108.5000465 460.240000
   2235   2234   2236     1   109.5000469 418.400000
   2235   2234   2240     1   109.5000469 418.400000
   2234   2236   2237     1   109.5000469 418.400000
   2230   2229   2231     1   120.0000514 292.880000
   2228   2229   2230     1   120.0000514 418.400000
   2228   2229   2231     1   120.0000514 418.400000
   2227   2226   2228     1   118.0000506 418.400000
   2224   2226   2227     1   116.8000501 418.400000
   2221   2220   2222     1   123.0500530 418.400000
   2219   2220   2221     1   123.0500530 418.400000
   2218   2217   2219     1   109.5000469 418.400000
   2218   2217   2236     1   109.5000469 418.400000
   2217   2236   2237     1   109.5000469 418.400000
   2216   2217   2218     1   109.5000469 418.400000
   2215   2214   2216     1   109.5000469 418.400000
   2215   2214   2234     1   109.5000469 418.400000
   2214   2234   2235     1   109.5000469 418.400000
   2213   2211   2214     1   109.5000469 418.400000
   2212   2211   2213     1   109.5000469 292.880000
   2212   2211   2214     1   109.5000469 418.400000
   2211   2214   2215     1   109.5000469 418.400000
   2210   2211   2212     1   109.5000469 418.400000
   2210   2211   2213     1   109.5000469 418.400000
   2267   2266   2268     1   109.5000469 418.400000
   2266   2268   2269     1   108.5000465 460.240000
   2265   2264   2266     1   109.5000469 418.400000
   2265   2264   2270     1   109.5000469 418.400000
   2264   2266   2267     1   109.5000469 418.400000
   2261   2260   2262     1   116.8000501 418.400000
   2258   2260   2261     1   116.8000501 418.400000
   2257   2256   2258     1   119.7000513 418.400000
   2255   2254   2256     1   119.7000513 418.400000
   2254   2256   2257     1   119.7000513 418.400000
   2253   2254   2255     1   119.1000510 418.400000
   2252   2251   2253     1   109.5000469 418.400000
   2252   2251   2266     1   109.5000469 418.400000
   2251   2266   2267     1   109.5000469 418.400000
   2250   2251   2252     1   109.5000469 418.400000
   2249   2248   2250     1   109.5000469 418.400000
   2249   2248   2264     1   109.5000469 418.400000
   2248   2264   2265     1   109.5000469 418.400000
   2247   2245   2248     1   109.5000469 418.400000
   2246   2245   2247     1   109.5000469 292.880000
   2246   2245   2248     1   109.5000469 418.400000
   2245   2248   2249     1   109.5000469 418.400000
   2244   2245   2246     1   109.5000469 418.400000
   2244   2245   2247     1   109.5000469 418.400000
   2298   2297   2299     1   109.5000469 418.400000
   2297   2299   2300     1   108.5000465 460.240000
   2296   2295   2297     1   109.5000469 418.400000
   2296   2295   2301     1   109.5000469 418.400000
   2295   2297   2298     1   109.5000469 418.400000
   2290   2289   2291     1   120.0000514 292.880000
   2288   2289   2290     1   120.0000514 418.400000
   2288   2289   2291     1   120.0000514 418.400000
   2287   2286   2288     1   123.3000528 418.400000
   2285   2284   2286     1   119.7000513 418.400000
   2284   2286   2287     1   119.7000513 418.400000
   2283   2284   2285     1   119.1000510 418.400000
   2282   2281   2283     1   109.5000469 418.400000
   2282   2281   2297     1   109.5000469 418.400000
   2281   2297   2298     1   109.5000469 418.400000
   2280   2281   2282     1   109.5000469 418.400000
   2279   2278   2280     1   109.5000469 418.400000
   2279   2278   2295     1   109.5000469 418.400000
   2278   2295   2296     1   109.5000469 418.400000
   2277   2275   2278     1   109.5000469 418.400000
   2276   2275   2277     1   109.5000469 292.880000
   2276   2275   2278     1   109.5000469 418.400000
   2275   2278   2279     1   109.5000469 418.400000
   2274   2275   2276     1   109.5000469 418.400000
   2274   2275   2277     1   109.5000469 418.400000
   2332   2331   2333     1   109.5000469 418.400000
   2331   2333   2334     1   108.5000465 460.240000
   2330   2329   2331     1   109.5000469 418.400000
   2330   2329   2335     1   109.5000469 418.400000
   2329   2331   2332     1   109.5000469 418.400000
   2325   2324   2326     1   120.0000514 292.880000
   2323   2324   2325     1   120.0000514 418.400000
   2323   2324   2326     1   120.0000514 418.400000
   2322   2321   2323     1   118.0000506 418.400000
   2319   2321   2322     1   116.8000501 418.400000
   2316   2315   2317     1   123.0500530 418.400000
   2314   2315   2316     1   123.0500530 418.400000
   2313   2312   2314     1   109.5000469 418.400000
   2313   2312   2331     1   109.5000469 418.400000
   2312   2331   2332     1   109.5000469 418.400000
   2311   2312   2313     1   109.5000469 418.400000
   2310   2309   2311     1   109.5000469 418.400000
   2310   2309   2329     1   109.5000469 418.400000
   2309   2329   2330     1   109.5000469 418.400000
   2308   2306   2309     1   109.5000469 418.400000
   2307   2306   2308     1   109.5000469 292.880000
   2307   2306   2309     1   109.5000469 418.400000
   2306   2309   2310     1   109.5000469 418.400000
   2305   2306   2307     1   109.5000469 418.400000
   2305   2306   2308     1   109.5000469 418.400000
   2362   2361   2363     1   109.5000469 418.400000
   2361   2363   2364     1   108.5000465 460.240000
   2360   2359   2361     1   109.5000469 418.400000
   2360   2359   2365     1   109.5000469 418.400000
   2359   2361   2362     1   109.5000469 418.400000
   2356   2355   2357     1   116.8000501 418.400000
   2353   2355   2356     1   116.8000501 418.400000
   2352   2351   2353     1   119.7000513 418.400000
   2350   2349   2351     1   119.7000513 418.400000
   2349   2351   2352     1   119.7000513 418.400000
   2348   2349   2350     1   119.1000510 418.400000
   2347   2346   2348     1   109.5000469 418.400000
   2347   2346   2361     1   109.5000469 418.400000
   2346   2361   2362     1   109.5000469 418.400000
   2345   2346   2347     1   109.5000469 418.400000
   2344   2343   2345     1   109.5000469 418.400000
   2344   2343   2359     1   109.5000469 418.400000
   2343   2359   2360     1   109.5000469 418.400000
   2342   2340   2343     1   109.5000469 418.400000
   2341   2340   2342     1   109.5000469 292.880000
   2341   2340   2343     1   109.5000469 418.400000
   2340   2343   2344     1   109.5000469 418.400000
   2339   2340   2341     1   109.5000469 418.400000
   2339   2340   2342     1   109.5000469 418.400000
   2395   2394   2396     1   109.5000469 418.400000
   2394   2396   2397     1   108.5000465 460.240000
   2393   2392   2394     1   109.5000469 418.400000
   2393   2392   2398     1   109.5000469 418.400000
   2392   2394   2395     1   109.5000469 418.400000
   2389   2388   2390     1   115.4500498 418.400000
   2387   2388   2389     1   115.4500498 418.400000
   2385   2384   2386     1   120.0000514 292.880000
   2383   2384   2385     1   120.0000514 418.400000
   2383   2384   2386     1   120.0000514 418.400000
   2380   2379   2381     1   123.0500530 418.400000
   2378   2379   2380     1   123.0500530 418.400000
   2377   2376   2378     1   109.5000469 418.400000
   2377   2376   2394     1   109.5000469 418.400000
   2376   2394   2395     1   109.5000469 418.400000
   2375   2376   2377     1   109.5000469 418.400000
   2374   2373   2375     1   109.5000469 418.400000
   2374   2373   2392     1   109.5000469 418.400000
   2373   2392   2393     1   109.5000469 418.400000
   2372   2370   2373     1   109.5000469 418.400000
   2371   2370   2372     1   109.5000469 292.880000
   2371   2370   2373     1   109.5000469 418.400000
   2370   2373   2374     1   109.5000469 418.400000
   2369   2370   2371     1   109.5000469 418.400000
   2369   2370   2372     1   109.5000469 418.400000
   2425   2424   2426     1   109.5000469 418.400000
   2424   2426   2427     1   108.5000465 460.240000
   2423   2422   2424     1   109.5000469 418.400000
   2423   2422   2428     1   109.5000469 418.400000
   2422   2424   2425     1   109.5000469 418.400000
   2419   2418   2420     1   116.8000501 418.400000
   2416   2418   2419     1   116.8000501 418.400000
   2415   2414   2416     1   119.7000513 418.400000
   2413   2412   2414     1   119.7000513 418.400000
   2412   2414   2415     1   119.7000513 418.400000
   2411   2412   2413     1   119.1000510 418.400000
   2410   2409   2411     1   109.5000469 418.400000
   2410   2409   2424     1   109.5000469 418.400000
   2409   2424   2425     1   109.5000469 418.400000
   2408   2409   2410     1   109.5000469 418.400000
   2407   2406   2408     1   109.5000469 418.400000
   2407   2406   2422     1   109.5000469 418.400000
   2406   2422   2423     1   109.5000469 418.400000
   2405   2403   2406     1   109.5000469 418.400000
   2404   2403   2405     1   109.5000469 292.880000
   2404   2403   2406     1   109.5000469 418.400000
   2403   2406   2407     1   109.5000469 418.400000
   2402   2403   2404     1   109.5000469 418.400000
   2402   2403   2405     1   109.5000469 418.400000
   2458   2457   2459     1   109.5000469 418.400000
   2457   2459   2460     1   108.5000465 460.240000
   2456   2455   2457     1   109.5000469 418.400000
   2456   2455   2461     1   109.5000469 418.400000
   2455   2457   2458     1   109.5000469 418.400000
   2452   2451   2453     1   115.4500498 418.400000
   2450   2451   2452     1   115.4500498 418.400000
   2448   2447   2449     1   120.0000514 292.880000
   2446   2447   2448     1   120.0000514 418.400000
   2446   2447   2449     1   120.0000514 418.400000
   2443   2442   2444     1   123.0500530 418.400000
   2441   2442   2443     1   123.0500530 418.400000
   2440   2439   2441     1   109.5000469 418.400000
   2440   2439   2457     1   109.5000469 418.400000
   2439   2457   2458     1   109.5000469 418.400000
   2438   2439   2440     1   109.5000469 418.400000
   2437   2436   2438     1   109.5000469 418.400000
   2437   2436   2455     1   109.5000469 418.400000
   2436   2455   2456     1   109.5000469 418.400000
   2435   2433   2436     1   109.5000469 418.400000
   2434   2433   2435     1   109.5000469 292.880000
   2434   2433   2436     1   109.5000469 418.400000
   2433   2436   2437     1   109.5000469 418.400000
   2432   2433   2434     1   109.5000469 418.400000
   2432   2433   2435     1   109.5000469 418.400000
   2489   2488   2490     1   109.5000469 418.400000
   2488   2490   2491     1   108.5000465 460.240000
   2487   2486   2488     1   109.5000469 418.400000
   2487   2486   2492     1   109.5000469 418.400000
   2486   2488   2489     1   109.5000469 418.400000
   2481   2480   2482     1   120.0000514 292.880000
   2479   2480   2481     1   120.0000514 418.400000
   2479   2480   2482     1   120.0000514 418.400000
   2478   2477   2479     1   123.3000528 418.400000
   2476   2475   2477     1   119.7000513 418.400000
   2475   2477   2478     1   119.7000513 418.400000
   2474   2475   2476     1   119.1000510 418.400000
   2473   2472   2474     1   109.5000469 418.400000
   2473   2472   2488     1   109.5000469 418.400000
   2472   2488   2489     1   109.5000469 418.400000
   2471   2472   2473     1   109.5000469 418.400000
   2470   2469   2471     1   109.5000469 418.400000
   2470   2469   2486     1   109.5000469 418.400000
   2469   2486   2487     1   109.5000469 418.400000
   2468   2466   2469     1   109.5000469 418.400000
   2467   2466   2468     1   109.5000469 292.880000
   2467   2466   2469     1   109.5000469 418.400000
   2466   2469   2470     1   109.5000469 418.400000
   2465   2466   2467     1   109.5000469 418.400000
   2465   2466   2468     1   109.5000469 418.400000
   2522   2521   2523     1   109.5000469 418.400000
   2521   2523   2524     1   108.5000465 460.240000
   2520   2519   2521     1   109.5000469 418.400000
   2520   2519   2525     1   109.5000469 418.400000
   2519   2521   2522     1   109.5000469 418.400000
   2516   2515   2517     1   115.4500498 418.400000
   2514   2515   2516     1   115.4500498 418.400000
   2512   2511   2513     1   120.0000514 292.880000
   2510   2511   2512     1   120.0000514 418.400000
   2510   2511   2513     1   120.0000514 418.400000
   2507   2506   2508     1   123.0500530 418.400000
   2505   2506   2507     1   123.0500530 418.400000
   2504   2503   2505     1   109.5000469 418.400000
   2504   2503   2521     1   109.5000469 418.400000
   2503   2521   2522     1   109.5000469 418.400000
   2502   2503   2504     1   109.5000469 418.400000
   2501   2500   2502     1   109.5000469 418.400000
   2501   2500   2519     1   109.5000469 418.400000
   2500   2519   2520     1   109.5000469 418.400000
   2499   2497   2500     1   109.5000469 418.400000
   2498   2497   2499     1   109.5000469 292.880000
   2498   2497   2500     1   109.5000469 418.400000
   2497   2500   2501     1   109.5000469 418.400000
   2496   2497   2498     1   109.5000469 418.400000
   2496   2497   2499     1   109.5000469 418.400000
   2556   2555   2557     1   109.5000469 418.400000
   2555   2557   2558     1   108.5000465 460.240000
   2554   2553   2555     1   109.5000469 418.400000
   2554   2553   2559     1   109.5000469 418.400000
   2553   2555   2556     1   109.5000469 418.400000
   2549   2548   2550     1   120.0000514 292.880000
   2547   2548   2549     1   120.0000514 418.400000
   2547   2548   2550     1   120.0000514 418.400000
   2546   2545   2547     1   118.0000506 418.400000
   2543   2545   2546     1   116.8000501 418.400000
   2540   2539   2541     1   123.0500530 418.400000
   2538   2539   2540     1   123.0500530 418.400000
   2537   2536   2538     1   109.5000469 418.400000
   2537   2536   2555     1   109.5000469 418.400000
   2536   2555   2556     1   109.5000469 418.400000
   2535   2536   2537     1   109.5000469 418.400000
   2534   2533   2535     1   109.5000469 418.400000
   2534   2533   2553     1   109.5000469 418.400000
   2533   2553   2554     1   109.5000469 418.400000
   2532   2530   2533     1   109.5000469 418.400000
   2531   2530   2532     1   109.5000469 292.880000
   2531   2530   2533     1   109.5000469 418.400000
   2530   2533   2534     1   109.5000469 418.400000
   2529   2530   2531     1   109.5000469 418.400000
   2529   2530   2532     1   109.5000469 418.400000
   2590   2589   2591     1   109.5000469 418.400000
   2589   2591   2592     1   108.5000465 460.240000
   2588   2587   2589     1   109.5000469 418.400000
   2588   2587   2593     1   109.5000469 418.400000
   2587   2589   2590     1   109.5000469 418.400000
   2583   2582   2584     1   120.0000514 292.880000
   2581   2582   2583     1   120.0000514 418.400000
   2581   2582   2584     1   120.0000514 418.400000
   2580   2579   2581     1   118.0000506 418.400000
   2577   2579   2580     1   116.8000501 418.400000
   2574   2573   2575     1   123.0500530 418.400000
   2572   2573   2574     1   123.0500530 418.400000
   2571   2570   2572     1   109.5000469 418.400000
   2571   2570   2589     1   109.5000469 418.400000
   2570   2589   2590     1   109.5000469 418.400000
   2569   2570   2571     1   109.5000469 418.400000
   2568   2567   2569     1   109.5000469 418.400000
   2568   2567   2587     1   109.5000469 418.400000
   2567   2587   2588     1   109.5000469 418.400000
   2566   2564   2567     1   109.5000469 418.400000
   2565   2564   2566     1   109.5000469 292.880000
   2565   2564   2567     1   109.5000469 418.400000
   2564   2567   2568     1   109.5000469 418.400000
   2563   2564   2565     1   109.5000469 418.400000
   2563   2564   2566     1   109.5000469 418.400000
   2624   2623   2625     1   109.5000469 418.400000
   2623   2625   2626     1   108.5000465 460.240000
   2622   2621   2623     1   109.5000469 418.400000
   2622   2621   2627     1   109.5000469 418.400000
   2621   2623   2624     1   109.5000469 418.400000
   2617   2616   2618     1   120.0000514 292.880000
   2615   2616   2617     1   120.0000514 418.400000
   2615   2616   2618     1   120.0000514 418.400000
   2614   2613   2615     1   118.0000506 418.400000
   2611   2613   2614     1   116.8000501 418.400000
   2608   2607   2609     1   123.0500530 418.400000
   2606   2607   2608     1   123.0500530 418.400000
   2605   2604   2606     1   109.5000469 418.400000
   2605   2604   2623     1   109.5000469 418.400000
   2604   2623   2624     1   109.5000469 418.400000
   2603   2604   2605     1   109.5000469 418.400000
   2602   2601   2603     1   109.5000469 418.400000
   2602   2601   2621     1   109.5000469 418.400000
   2601   2621   2622     1   109.5000469 418.400000
   2600   2598   2601     1   109.5000469 418.400000
   2599   2598   2600     1   109.5000469 292.880000
   2599   2598   2601     1   109.5000469 418.400000
   2598   2601   2602     1   109.5000469 418.400000
   2597   2598   2599     1   109.5000469 418.400000
   2597   2598   2600     1   109.5000469 418.400000
   2655   2654   2656     1   109.5000469 418.400000
   2654   2656   2657     1   108.5000465 460.240000
   2653   2652   2654     1   109.5000469 418.400000
   2653   2652   2658     1   109.5000469 418.400000
   2652   2654   2655     1   109.5000469 418.400000
   2647   2646   2648     1   120.0000514 292.880000
   2645   2646   2647     1   120.0000514 418.400000
   2645   2646   2648     1   120.0000514 418.400000
   2644   2643   2645     1   123.3000528 418.400000
   2642   2641   2643     1   119.7000513 418.400000
   2641   2643   2644     1   119.7000513 418.400000
   2640   2641   2642     1   119.1000510 418.400000
   2639   2638   2640     1   109.5000469 418.400000
   2639   2638   2654     1   109.5000469 418.400000
   2638   2654   2655     1   109.5000469 418.400000
   2637   2638   2639     1   109.5000469 418.400000
   2636   2635   2637     1   109.5000469 418.400000
   2636   2635   2652     1   109.5000469 418.400000
   2635   2652   2653     1   109.5000469 418.400000
   2634   2632   2635     1   109.5000469 418.400000
   2633   2632   2634     1   109.5000469 292.880000
   2633   2632   2635     1   109.5000469 418.400000
   2632   2635   2636     1   109.5000469 418.400000
   2631   2632   2633     1   109.5000469 418.400000
   2631   2632   2634     1   109.5000469 418.400000
   2685   2684   2686     1   109.5000469 418.400000
   2684   2686   2687     1   108.5000465 460.240000
   2683   2682   2684     1   109.5000469 418.400000
   2683   2682   2688     1   109.5000469 418.400000
   2682   2684   2685     1   109.5000469 418.400000
   2679   2678   2680     1   116.8000501 418.400000
   2676   2678   2679     1   116.8000501 418.400000
   2675   2674   2676     1   119.7000513 418.400000
   2673   2672   2674     1   119.7000513 418.400000
   2672   2674   2675     1   119.7000513 418.400000
   2671   2672   2673     1   119.1000510 418.400000
   2670   2669   2671     1   109.5000469 418.400000
   2670   2669   2684     1   109.5000469 418.400000
   2669   2684   2685     1   109.5000469 418.400000
   2668   2669   2670     1   109.5000469 418.400000
   2667   2666   2668     1   109.5000469 418.400000
   2667   2666   2682     1   109.5000469 418.400000
   2666   2682   2683     1   109.5000469 418.400000
   2665   2663   2666     1   109.5000469 418.400000
   2664   2663   2665     1   109.5000469 292.880000
   2664   2663   2666     1   109.5000469 418.400000
   2663   2666   2667     1   109.5000469 418.400000
   2662   2663   2664     1   109.5000469 418.400000
   2662   2663   2665     1   109.5000469 418.400000
   2715   2714   2716     1   109.5000469 418.400000
   2714   2716   2717     1   108.5000465 460.240000
   2713   2712   2714     1   109.5000469 418.400000
   2713   2712   2718     1   109.5000469 418.400000
   2712   2714   2715     1   109.5000469 418.400000
   2709   2708   2710     1   116.8000501 418.400000
   2706   2708   2709     1   116.8000501 418.400000
   2705   2704   2706     1   119.7000513 418.400000
   2703   2702   2704     1   119.7000513 418.400000
   2702   2704   2705     1   119.7000513 418.400000
   2701   2702   2703     1   119.1000510 418.400000
   2700   2699   2701     1   109.5000469 418.400000
   2700   2699   2714     1   109.5000469 418.400000
   2699   2714   2715     1   109.5000469 418.400000
   2698   2699   2700     1   109.5000469 418.400000
   2697   2696   2698     1   109.5000469 418.400000
   2697   2696   2712     1   109.5000469 418.400000
   2696   2712   2713     1   109.5000469 418.400000
   2695   2693   2696     1   109.5000469 418.400000
   2694   2693   2695     1   109.5000469 292.880000
   2694   2693   2696     1   109.5000469 418.400000
   2693   2696   2697     1   109.5000469 418.400000
   2692   2693   2694     1   109.5000469 418.400000
   2692   2693   2695     1   109.5000469 418.400000
   2745   2744   2746     1   109.5000469 418.400000
   2744   2746   2747     1   108.5000465 460.240000
   2743   2742   2744     1   109.5000469 418.400000
   2743   2742   2748     1   109.5000469 418.400000
   2742   2744   2745     1   109.5000469 418.400000
   2739   2738   2740     1   116.8000501 418.400000
   2736   2738   2739     1   116.8000501 418.400000
   2735   2734   2736     1   119.7000513 418.400000
   2733   2732   2734     1   119.7000513 418.400000
   2732   2734   2735     1   119.7000513 418.400000
   2731   2732   2733     1   119.1000510 418.400000
   2730   2729   2731     1   109.5000469 418.400000
   2730   2729   2744     1   109.5000469 418.400000
   2729   2744   2745     1   109.5000469 418.400000
   2728   2729   2730     1   109.5000469 418.400000
   2727   2726   2728     1   109.5000469 418.400000
   2727   2726   2742     1   109.5000469 418.400000
   2726   2742   2743     1   109.5000469 418.400000
   2725   2723   2726     1   109.5000469 418.400000
   2724   2723   2725     1   109.5000469 292.880000
   2724   2723   2726     1   109.5000469 418.400000
   2723   2726   2727     1   109.5000469 418.400000
   2722   2723   2724     1   109.5000469 418.400000
   2722   2723   2725     1   109.5000469 418.400000
   2775   2774   2776     1   109.5000469 418.400000
   2774   2776   2777     1   108.5000465 460.240000
   2773   2772   2774     1   109.5000469 418.400000
   2773   2772   2778     1   109.5000469 418.400000
   2772   2774   2775     1   109.5000469 418.400000
   2772   2778   2779     1   108.5000465 460.240000
   2769   2768   2770     1   116.8000501 418.400000
   2766   2768   2769     1   116.8000501 418.400000
   2765   2764   2766     1   119.7000513 418.400000
   2763   2762   2764     1   119.7000513 418.400000
   2762   2764   2765     1   119.7000513 418.400000
   2761   2762   2763     1   119.1000510 418.400000
   2760   2759   2761     1   109.5000469 418.400000
   2760   2759   2774     1   109.5000469 418.400000
   2759   2774   2775     1   109.5000469 418.400000
   2758   2759   2760     1   109.5000469 418.400000
   2757   2756   2758     1   109.5000469 418.400000
   2757   2756   2772     1   109.5000469 418.400000
   2756   2772   2773     1   109.5000469 418.400000
   2755   2753   2756     1   109.5000469 418.400000
   2754   2753   2755     1   109.5000469 292.880000
   2754   2753   2756     1   109.5000469 418.400000
   2753   2756   2757     1   109.5000469 418.400000
   2752   2753   2754     1   109.5000469 418.400000
   2752   2753   2755     1   109.5000469 418.400000

[ dihedrals ]
;    ai     aj     ak     al funct         c0         c1         c2         c3         c4         c5
     32     33     36     37     1  31.7950936  0.7747973  1
     32     33     36     37     1  351.9597510  5.2573257  2
     32     33     36     37     1  357.2476330  1.4847259  3
     30     28     26     32     1  0.0000000  4.9162000  2
     30     28     26     32     1  0.0000000  0.6024960  3
     28     26     32     33     1  0.0000000  1.6038667  3
     26     32     33     34     1  0.0000000  1.0460000  3
     26     32     33     35     1  0.0000000  1.0460000  3
     26     32     33     36     1  333.9801429  -1.1598843  1
     26     32     33     36     1  2.9800013  4.4603365  2
     26     32     33     36     1  29.4700126  0.7878430  3
     25     11      9     28     1  0.0000000  0.0000000  2
     21     20     24     25     1  180.0000771  20.0832000  2
     18     16     15     25     1  180.0000771  12.5520000  2
     18     20     24     25     1  180.0000771  20.0832000  2
     17     16     15     25     1  180.0000771  12.5520000  2
     17     16     18     20     1  180.0000771  5.6484000  2
     16     15     25     24     1  180.0000771  22.8028000  2
     16     18     20     21     1  180.0000771  6.2760000  2
     16     18     20     24     1  180.0000771  6.2760000  2
     15     16     18     20     1  180.0000771  5.6484000  2
     15     25     24     20     1  180.0000771  17.3636000  2
     14     12     11     25     1  180.0000771  7.1128000  2
     14     15     16     17     1  180.0000771  12.5520000  2
     14     15     16     18     1  180.0000771  12.5520000  2
     14     15     25     24     1  180.0000771  22.8028000  2
     12     11      9     28     1  0.0000000  0.0000000  2
     12     11     25     15     1  180.0000771  6.9036000  2
     12     11     25     24     1  180.0000771  6.9036000  2
     12     14     15     16     1  180.0000771  10.6692000  2
     12     14     15     25     1  180.0000771  10.6692000  2
     11      9     28     26     1  0.0000000  0.6508444  3
     11      9     28     30     1  0.0000000  0.6508444  3
     11     12     14     15     1  180.0000771  41.8400000  2
     11     25     15     14     1  180.0000771  22.8028000  2
     11     25     15     16     1  180.0000771  22.8028000  2
     11     25     24     20     1  180.0000771  17.3636000  2
      9      8      6     26     1  180.0000771  0.4184000  2
      9      8      6     26     1  0.0000000  1.6024720  3
      9     11     12     14     1  180.0000771  7.1128000  2
      9     11     25     15     1  180.0000771  6.9036000  2
      9     11     25     24     1  180.0000771  6.9036000  2
      9     28     26     32     1  0.0000000  0.6508444  3
      8      6     26     28     1  0.0000000  0.6508444  3
      8      6     26     32     1  0.0000000  4.9162000  2
      8      6     26     32     1  0.0000000  0.6024960  3
      8      9     11     12     1  287.1401229  -3.8169126  1
      8      9     11     12     1  331.9701422  5.7662424  2
      8      9     11     12     1  27.7600119  -1.7805138  3
      8      9     11     12     1  328.1301407  0.2514082  4
      8      9     11     25     1  0.0000000  0.0000000  2
      8      9     28     26     1  0.0000000  0.6508444  3
      8      9     28     30     1  0.0000000  4.9162000  2
      8      9     28     30     1  0.0000000  0.6024960  3
      6      8      9     11     1  0.0000000  2.7196000  2
      6      8      9     11     1  0.0000000  1.6024720  3
      6      8      9     28     1  180.0000771  0.4184000  2
      6      8      9     28     1  0.0000000  1.6024720  3
      6     26     28      9     1  180.0000771  0.8368000  1
      6     26     28      9     1  180.0000771  1.0460000  2
      6     26     28      9     1  0.0000000  0.7531200  3
      6     26     28     30     1  0.0000000  0.6508444  3
      6     26     32     33     1  0.0000000  1.6038667  3
      3      6      8      9     1  180.0000771  0.4184000  2
      3      6      8      9     1  0.0000000  1.6024720  3
      3      6     26     28     1  180.0000771  0.8368000  1
      3      6     26     28     1  180.0000771  1.0460000  2
      3      6     26     28     1  0.0000000  0.7531200  3
      3      6     26     32     1  0.0000000  0.6508444  3
      2      3      6      8     1  0.0000000  0.6508444  3
      2      3      6     26     1  299.6901286  -1.5060182  1
      2      3      6     26     1  274.1001175  5.1381528  2
      2      3      6     26     1  342.2101465  3.2676873  3
     62     63     66     67     1  31.7950936  0.7747973  1
     62     63     66     67     1  351.9597510  5.2573257  2
     62     63     66     67     1  357.2476330  1.4847259  3
     60     58     56     62     1  0.0000000  4.9162000  2
     60     58     56     62     1  0.0000000  0.6024960  3
     58     56     62     63     1  0.0000000  1.6038667  3
     56     62     63     64     1  0.0000000  1.0460000  3
     56     62     63     65     1  0.0000000  1.0460000  3
     56     62     63     66     1  333.9801429  -1.1598843  1
     56     62     63     66     1  2.9800013  4.4603365  2
     56     62     63     66     1  29.4700126  0.7878430  3
     54     45     43     58     1  0.0000000  0.0000000  2
     51     50     52     54     1  180.0000771  5.6484000  2
     50     52     54     55     1  180.0000771  5.6484000  2
     48     46     45     54     1  180.0000771  7.7404000  2
     48     50     52     54     1  180.0000771  5.6484000  2
     46     45     43     58     1  0.0000000  0.0000000  2
     46     45     54     52     1  180.0000771  6.0668000  2
     46     45     54     55     1  180.0000771  6.0668000  2
     46     48     50     51     1  180.0000771  9.1002000  2
     46     48     50     51     1  0.0000000  1.2552000  3
     46     48     50     52     1  180.0000771  9.1002000  2
     45     43     58     56     1  0.0000000  0.6508444  3
     45     43     58     60     1  0.0000000  0.6508444  3
     45     46     48     50     1  180.0000771  27.8236000  2
     45     54     52     50     1  180.0000771  5.6484000  2
     43     42     40     56     1  180.0000771  0.4184000  2
     43     42     40     56     1  0.0000000  1.6024720  3
     43     45     46     48     1  180.0000771  7.7404000  2
     43     45     54     52     1  180.0000771  6.0668000  2
     43     45     54     55     1  180.0000771  6.0668000  2
     43     58     56     62     1  0.0000000  0.6508444  3
     42     40     56     58     1  0.0000000  0.6508444  3
     42     40     56     62     1  0.0000000  4.9162000  2
     42     40     56     62     1  0.0000000  0.6024960  3
     42     43     45     46     1  147.4600633  2.5402277  1
     42     43     45     46     1  346.4201487  5.4288069  2
     42     43     45     46     1  38.1300163  -2.0913808  3
     42     43     45     46     1  348.0001491  -0.6909207  4
     42     43     45     54     1  0.0000000  0.0000000  2
     42     43     58     56     1  0.0000000  0.6508444  3
     42     43     58     60     1  0.0000000  4.9162000  2
     42     43     58     60     1  0.0000000  0.6024960  3
     40     42     43     45     1  0.0000000  2.7196000  2
     40     42     43     45     1  0.0000000  1.6024720  3
     40     42     43     58     1  180.0000771  0.4184000  2
     40     42     43     58     1  0.0000000  1.6024720  3
     40     56     58     43     1  180.0000771  0.8368000  1
     40     56     58     43     1  180.0000771  1.0460000  2
     40     56     58     43     1  0.0000000  0.7531200  3
     40     56     58     60     1  0.0000000  0.6508444  3
     40     56     62     63     1  0.0000000  1.6038667  3
     37     40     42     43     1  180.0000771  0.4184000  2
     37     40     42     43     1  0.0000000  1.6024720  3
     37     40     56     58     1  180.0000771  0.8368000  1
     37     40     56     58     1  180.0000771  1.0460000  2
     37     40     56     58     1  0.0000000  0.7531200  3
     37     40     56     62     1  0.0000000  0.6508444  3
     36     37     40     42     1  0.0000000  0.6508444  3
     36     37     40     56     1  299.6901286  -1.5060182  1
     36     37     40     56     1  274.1001175  5.1381528  2
     36     37     40     56     1  342.2101465  3.2676873  3
     35     33     36     37     1  0.0000000  1.0460000  3
     34     33     36     37     1  0.0000000  1.0460000  3
     33     36     37     40     1  0.0000000  1.6038667  3
     92     93     96     97     1  31.7950936  0.7747973  1
     92     93     96     97     1  351.9597510  5.2573257  2
     92     93     96     97     1  357.2476330  1.4847259  3
     90     88     86     92     1  0.0000000  4.9162000  2
     90     88     86     92     1  0.0000000  0.6024960  3
     88     86     92     93     1  0.0000000  1.6038667  3
     86     92     93     94     1  0.0000000  1.0460000  3
     86     92     93     95     1  0.0000000  1.0460000  3
     86     92     93     96     1  333.9801429  -1.1598843  1
     86     92     93     96     1  2.9800013  4.4603365  2
     86     92     93     96     1  29.4700126  0.7878430  3
     84     75     73     88     1  0.0000000  0.0000000  2
     81     80     82     84     1  180.0000771  5.6484000  2
     80     82     84     85     1  180.0000771  5.6484000  2
     78     76     75     84     1  180.0000771  7.7404000  2
     78     80     82     84     1  180.0000771  5.6484000  2
     76     75     73     88     1  0.0000000  0.0000000  2
     76     75     84     82     1  180.0000771  6.0668000  2
     76     75     84     85     1  180.0000771  6.0668000  2
     76     78     80     81     1  180.0000771  9.1002000  2
     76     78     80     81     1  0.0000000  1.2552000  3
     76     78     80     82     1  180.0000771  9.1002000  2
     75     73     88     86     1  0.0000000  0.6508444  3
     75     73     88     90     1  0.0000000  0.6508444  3
     75     76     78     80     1  180.0000771  27.8236000  2
     75     84     82     80     1  180.0000771  5.6484000  2
     73     72     70     86     1  180.0000771  0.4184000  2
     73     72     70     86     1  0.0000000  1.6024720  3
     73     75     76     78     1  180.0000771  7.7404000  2
     73     75     84     82     1  180.0000771  6.0668000  2
     73     75     84     85     1  180.0000771  6.0668000  2
     73     88     86     92     1  0.0000000  0.6508444  3
     72     70     86     88     1  0.0000000  0.6508444  3
     72     70     86     92     1  0.0000000  4.9162000  2
     72     70     86     92     1  0.0000000  0.6024960  3
     72     73     75     76     1  147.4600633  2.5402277  1
     72     73     75     76     1  346.4201487  5.4288069  2
     72     73     75     76     1  38.1300163  -2.0913808  3
     72     73     75     76     1  348.0001491  -0.6909207  4
     72     73     75     84     1  0.0000000  0.0000000  2
     72     73     88     86     1  0.0000000  0.6508444  3
     72     73     88     90     1  0.0000000  4.9162000  2
     72     73     88     90     1  0.0000000  0.6024960  3
     70     72     73     75     1  0.0000000  2.7196000  2
     70     72     73     75     1  0.0000000  1.6024720  3
     70     72     73     88     1  180.0000771  0.4184000  2
     70     72     73     88     1  0.0000000  1.6024720  3
     70     86     88     73     1  180.0000771  0.8368000  1
     70     86     88     73     1  180.0000771  1.0460000  2
     70     86     88     73     1  0.0000000  0.7531200  3
     70     86     88     90     1  0.0000000  0.6508444  3
     70     86     92     93     1  0.0000000  1.6038667  3
     67     70     72     73     1  180.0000771  0.4184000  2
     67     70     72     73     1  0.0000000  1.6024720  3
     67     70     86     88     1  180.0000771  0.8368000  1
     67     70     86     88     1  180.0000771  1.0460000  2
     67     70     86     88     1  0.0000000  0.7531200  3
     67     70     86     92     1  0.0000000  0.6508444  3
     66     67     70     72     1  0.0000000  0.6508444  3
     66     67     70     86     1  299.6901286  -1.5060182  1
     66     67     70     86     1  274.1001175  5.1381528  2
     66     67     70     86     1  342.2101465  3.2676873  3
     65     63     66     67     1  0.0000000  1.0460000  3
     64     63     66     67     1  0.0000000  1.0460000  3
     63     66     67     70     1  0.0000000  1.6038667  3
    122    123    126    127     1  31.7950936  0.7747973  1
    122    123    126    127     1  351.9597510  5.2573257  2
    122    123    126    127     1  357.2476330  1.4847259  3
    120    118    116    122     1  0.0000000  4.9162000  2
    120    118    116    122     1  0.0000000  0.6024960  3
    118    116    122    123     1  0.0000000  1.6038667  3
    116    122    123    124     1  0.0000000  1.0460000  3
    116    122    123    125     1  0.0000000  1.0460000  3
    116    122    123    126     1  333.9801429  -1.1598843  1
    116    122    123    126     1  2.9800013  4.4603365  2
    116    122    123    126     1  29.4700126  0.7878430  3
    114    105    103    118     1  0.0000000  0.0000000  2
    111    110    112    114     1  180.0000771  5.6484000  2
    110    112    114    115     1  180.0000771  5.6484000  2
    108    106    105    114     1  180.0000771  7.7404000  2
    108    110    112    114     1  180.0000771  5.6484000  2
    106    105    103    118     1  0.0000000  0.0000000  2
    106    105    114    112     1  180.0000771  6.0668000  2
    106    105    114    115     1  180.0000771  6.0668000  2
    106    108    110    111     1  180.0000771  9.1002000  2
    106    108    110    111     1  0.0000000  1.2552000  3
    106    108    110    112     1  180.0000771  9.1002000  2
    105    103    118    116     1  0.0000000  0.6508444  3
    105    103    118    120     1  0.0000000  0.6508444  3
    105    106    108    110     1  180.0000771  27.8236000  2
    105    114    112    110     1  180.0000771  5.6484000  2
    103    102    100    116     1  180.0000771  0.4184000  2
    103    102    100    116     1  0.0000000  1.6024720  3
    103    105    106    108     1  180.0000771  7.7404000  2
    103    105    114    112     1  180.0000771  6.0668000  2
    103    105    114    115     1  180.0000771  6.0668000  2
    103    118    116    122     1  0.0000000  0.6508444  3
    102    100    116    118     1  0.0000000  0.6508444  3
    102    100    116    122     1  0.0000000  4.9162000  2
    102    100    116    122     1  0.0000000  0.6024960  3
    102    103    105    106     1  147.4600633  2.5402277  1
    102    103    105    106     1  346.4201487  5.4288069  2
    102    103    105    106     1  38.1300163  -2.0913808  3
    102    103    105    106     1  348.0001491  -0.6909207  4
    102    103    105    114     1  0.0000000  0.0000000  2
    102    103    118    116     1  0.0000000  0.6508444  3
    102    103    118    120     1  0.0000000  4.9162000  2
    102    103    118    120     1  0.0000000  0.6024960  3
    100    102    103    105     1  0.0000000  2.7196000  2
    100    102    103    105     1  0.0000000  1.6024720  3
    100    102    103    118     1  180.0000771  0.4184000  2
    100    102    103    118     1  0.0000000  1.6024720  3
    100    116    118    103     1  180.0000771  0.8368000  1
    100    116    118    103     1  180.0000771  1.0460000  2
    100    116    118    103     1  0.0000000  0.7531200  3
    100    116    118    120     1  0.0000000  0.6508444  3
    100    116    122    123     1  0.0000000  1.6038667  3
     97    100    102    103     1  180.0000771  0.4184000  2
     97    100    102    103     1  0.0000000  1.6024720  3
     97    100    116    118     1  180.0000771  0.8368000  1
     97    100    116    118     1  180.0000771  1.0460000  2
     97    100    116    118     1  0.0000000  0.7531200  3
     97    100    116    122     1  0.0000000  0.6508444  3
     96     97    100    102     1  0.0000000  0.6508444  3
     96     97    100    116     1  299.6901286  -1.5060182  1
     96     97    100    116     1  274.1001175  5.1381528  2
     96     97    100    116     1  342.2101465  3.2676873  3
     95     93     96     97     1  0.0000000  1.0460000  3
     94     93     96     97     1  0.0000000  1.0460000  3
     93     96     97    100     1  0.0000000  1.6038667  3
    152    153    156    157     1  31.7950936  0.7747973  1
    152    153    156    157     1  351.9597510  5.2573257  2
    152    153    156    157     1  357.2476330  1.4847259  3
    150    148    146    152     1  0.0000000  4.9162000  2
    150    148    146    152     1  0.0000000  0.6024960  3
    148    146    152    153     1  0.0000000  1.6038667  3
    146    152    153    154     1  0.0000000  1.0460000  3
    146    152    153    155     1  0.0000000  1.0460000  3
    146    152    153    156     1  333.9801429  -1.1598843  1
    146    152    153    156     1  2.9800013  4.4603365  2
    146    152    153    156     1  29.4700126  0.7878430  3
    144    135    133    148     1  0.0000000  0.0000000  2
    141    140    142    144     1  180.0000771  5.6484000  2
    140    142    144    145     1  180.0000771  5.6484000  2
    138    136    135    144     1  180.0000771  7.7404000  2
    138    140    142    144     1  180.0000771  5.6484000  2
    136    135    133    148     1  0.0000000  0.0000000  2
    136    135    144    142     1  180.0000771  6.0668000  2
    136    135    144    145     1  180.0000771  6.0668000  2
    136    138    140    141     1  180.0000771  9.1002000  2
    136    138    140    141     1  0.0000000  1.2552000  3
    136    138    140    142     1  180.0000771  9.1002000  2
    135    133    148    146     1  0.0000000  0.6508444  3
    135    133    148    150     1  0.0000000  0.6508444  3
    135    136    138    140     1  180.0000771  27.8236000  2
    135    144    142    140     1  180.0000771  5.6484000  2
    133    132    130    146     1  180.0000771  0.4184000  2
    133    132    130    146     1  0.0000000  1.6024720  3
    133    135    136    138     1  180.0000771  7.7404000  2
    133    135    144    142     1  180.0000771  6.0668000  2
    133    135    144    145     1  180.0000771  6.0668000  2
    133    148    146    152     1  0.0000000  0.6508444  3
    132    130    146    148     1  0.0000000  0.6508444  3
    132    130    146    152     1  0.0000000  4.9162000  2
    132    130    146    152     1  0.0000000  0.6024960  3
    132    133    135    136     1  147.4600633  2.5402277  1
    132    133    135    136     1  346.4201487  5.4288069  2
    132    133    135    136     1  38.1300163  -2.0913808  3
    132    133    135    136     1  348.0001491  -0.6909207  4
    132    133    135    144     1  0.0000000  0.0000000  2
    132    133    148    146     1  0.0000000  0.6508444  3
    132    133    148    150     1  0.0000000  4.9162000  2
    132    133    148    150     1  0.0000000  0.6024960  3
    130    132    133    135     1  0.0000000  2.7196000  2
    130    132    133    135     1  0.0000000  1.6024720  3
    130    132    133    148     1  180.0000771  0.4184000  2
    130    132    133    148     1  0.0000000  1.6024720  3
    130    146    148    133     1  180.0000771  0.8368000  1
    130    146    148    133     1  180.0000771  1.0460000  2
    130    146    148    133     1  0.0000000  0.7531200  3
    130    146    148    150     1  0.0000000  0.6508444  3
    130    146    152    153     1  0.0000000  1.6038667  3
    127    130    132    133     1  180.0000771  0.4184000  2
    127    130    132    133     1  0.0000000  1.6024720  3
    127    130    146    148     1  180.0000771  0.8368000  1
    127    130    146    148     1  180.0000771  1.0460000  2
    127    130    146    148     1  0.0000000  0.7531200  3
    127    130    146    152     1  0.0000000  0.6508444  3
    126    127    130    132     1  0.0000000  0.6508444  3
    126    127    130    146     1  299.6901286  -1.5060182  1
    126    127    130    146     1  274.1001175  5.1381528  2
    126    127    130    146     1  342.2101465  3.2676873  3
    125    123    126    127     1  0.0000000  1.0460000  3
    124    123    126    127     1  0.0000000  1.0460000  3
    123    126    127    130     1  0.0000000  1.6038667  3
    182    183    186    187     1  31.7950936  0.7747973  1
    182    183    186    187     1  351.9597510  5.2573257  2
    182    183    186    187     1  357.2476330  1.4847259  3
    180    178    176    182     1  0.0000000  4.9162000  2
    180    178    176    182     1  0.0000000  0.6024960  3
    178    176    182    183     1  0.0000000  1.6038667  3
    176    182    183    184     1  0.0000000  1.0460000  3
    176    182    183    185     1  0.0000000  1.0460000  3
    176    182    183    186     1  333.9801429  -1.1598843  1
    176    182    183    186     1  2.9800013  4.4603365  2
    176    182    183    186     1  29.4700126  0.7878430  3
    174    165    163    178     1  0.0000000  0.0000000  2
    171    170    172    174     1  180.0000771  5.6484000  2
    170    172    174    175     1  180.0000771  5.6484000  2
    168    166    165    174     1  180.0000771  7.7404000  2
    168    170    172    174     1  180.0000771  5.6484000  2
    166    165    163    178     1  0.0000000  0.0000000  2
    166    165    174    172     1  180.0000771  6.0668000  2
    166    165    174    175     1  180.0000771  6.0668000  2
    166    168    170    171     1  180.0000771  9.1002000  2
    166    168    170    171     1  0.0000000  1.2552000  3
    166    168    170    172     1  180.0000771  9.1002000  2
    165    163    178    176     1  0.0000000  0.6508444  3
    165    163    178    180     1  0.0000000  0.6508444  3
    165    166    168    170     1  180.0000771  27.8236000  2
    165    174    172    170     1  180.0000771  5.6484000  2
    163    162    160    176     1  180.0000771  0.4184000  2
    163    162    160    176     1  0.0000000  1.6024720  3
    163    165    166    168     1  180.0000771  7.7404000  2
    163    165    174    172     1  180.0000771  6.0668000  2
    163    165    174    175     1  180.0000771  6.0668000  2
    163    178    176    182     1  0.0000000  0.6508444  3
    162    160    176    178     1  0.0000000  0.6508444  3
    162    160    176    182     1  0.0000000  4.9162000  2
    162    160    176    182     1  0.0000000  0.6024960  3
    162    163    165    166     1  147.4600633  2.5402277  1
    162    163    165    166     1  346.4201487  5.4288069  2
    162    163    165    166     1  38.1300163  -2.0913808  3
    162    163    165    166     1  348.0001491  -0.6909207  4
    162    163    165    174     1  0.0000000  0.0000000  2
    162    163    178    176     1  0.0000000  0.6508444  3
    162    163    178    180     1  0.0000000  4.9162000  2
    162    163    178    180     1  0.0000000  0.6024960  3
    160    162    163    165     1  0.0000000  2.7196000  2
    160    162    163    165     1  0.0000000  1.6024720  3
    160    162    163    178     1  180.0000771  0.4184000  2
    160    162    163    178     1  0.0000000  1.6024720  3
    160    176    178    163     1  180.0000771  0.8368000  1
    160    176    178    163     1  180.0000771  1.0460000  2
    160    176    178    163     1  0.0000000  0.7531200  3
    160    176    178    180     1  0.0000000  0.6508444  3
    160    176    182    183     1  0.0000000  1.6038667  3
    157    160    162    163     1  180.0000771  0.4184000  2
    157    160    162    163     1  0.0000000  1.6024720  3
    157    160    176    178     1  180.0000771  0.8368000  1
    157    160    176    178     1  180.0000771  1.0460000  2
    157    160    176    178     1  0.0000000  0.7531200  3
    157    160    176    182     1  0.0000000  0.6508444  3
    156    157    160    162     1  0.0000000  0.6508444  3
    156    157    160    176     1  299.6901286  -1.5060182  1
    156    157    160    176     1  274.1001175  5.1381528  2
    156    157    160    176     1  342.2101465  3.2676873  3
    155    153    156    157     1  0.0000000  1.0460000  3
    154    153    156    157     1  0.0000000  1.0460000  3
    153    156    157    160     1  0.0000000  1.6038667  3
    215    216    219    220     1  31.7950936  0.7747973  1
    215    216    219    220     1  351.9597510  5.2573257  2
    215    216    219    220     1  357.2476330  1.4847259  3
    213    211    209    215     1  0.0000000  4.9162000  2
    213    211    209    215     1  0.0000000  0.6024960  3
    211    209    215    216     1  0.0000000  1.6038667  3
    209    215    216    217     1  0.0000000  1.0460000  3
    209    215    216    218     1  0.0000000  1.0460000  3
    209    215    216    219     1  333.9801429  -1.1598843  1
    209    215    216    219     1  2.9800013  4.4603365  2
    209    215    216    219     1  29.4700126  0.7878430  3
    208    195    193    211     1  0.0000000  0.0000000  2
    204    200    199    208     1  180.0000771  14.6440000  2
    204    205    207    208     1  180.0000771  28.4512000  2
    201    200    199    208     1  180.0000771  14.6440000  2
    201    200    204    205     1  180.0000771  20.0832000  2
    200    199    208    207     1  180.0000771  22.8028000  2
    200    204    205    207     1  180.0000771  28.4512000  2
    199    200    204    205     1  180.0000771  20.0832000  2
    199    208    207    205     1  180.0000771  17.3636000  2
    198    196    195    208     1  180.0000771  7.1128000  2
    198    199    200    201     1  180.0000771  14.6440000  2
    198    199    200    204     1  180.0000771  14.6440000  2
    198    199    208    207     1  180.0000771  22.8028000  2
    196    195    193    211     1  0.0000000  0.0000000  2
    196    195    208    199     1  180.0000771  6.9036000  2
    196    195    208    207     1  180.0000771  6.9036000  2
    196    198    199    200     1  180.0000771  10.6692000  2
    196    198    199    208     1  180.0000771  10.6692000  2
    195    193    211    209     1  0.0000000  0.6508444  3
    195    193    211    213     1  0.0000000  0.6508444  3
    195    196    198    199     1  180.0000771  41.8400000  2
    195    208    199    198     1  180.0000771  22.8028000  2
    195    208    199    200     1  180.0000771  22.8028000  2
    195    208    207    205     1  180.0000771  17.3636000  2
    193    192    190    209     1  180.0000771  0.4184000  2
    193    192    190    209     1  0.0000000  1.6024720  3
    193    195    196    198     1  180.0000771  7.1128000  2
    193    195    208    199     1  180.0000771  6.9036000  2
    193    195    208    207     1  180.0000771  6.9036000  2
    193    211    209    215     1  0.0000000  0.6508444  3
    192    190    209    211     1  0.0000000  0.6508444  3
    192    190    209    215     1  0.0000000  4.9162000  2
    192    190    209    215     1  0.0000000  0.6024960  3
    192    193    195    196     1  98.2900423  3.1435856  1
    192    193    195    196     1  328.5601409  4.5857268  2
    192    193    195    196     1  50.5200217  -1.7297325  3
    192    193    195    196     1  40.9900176  0.2709140  4
    192    193    195    208     1  0.0000000  0.0000000  2
    192    193    211    209     1  0.0000000  0.6508444  3
    192    193    211    213     1  0.0000000  4.9162000  2
    192    193    211    213     1  0.0000000  0.6024960  3
    190    192    193    195     1  0.0000000  2.7196000  2
    190    192    193    195     1  0.0000000  1.6024720  3
    190    192    193    211     1  180.0000771  0.4184000  2
    190    192    193    211     1  0.0000000  1.6024720  3
    190    209    211    193     1  180.0000771  0.8368000  1
    190    209    211    193     1  180.0000771  1.0460000  2
    190    209    211    193     1  0.0000000  0.7531200  3
    190    209    211    213     1  0.0000000  0.6508444  3
    190    209    215    216     1  0.0000000  1.6038667  3
    187    190    192    193     1  180.0000771  0.4184000  2
    187    190    192    193     1  0.0000000  1.6024720  3
    187    190    209    211     1  180.0000771  0.8368000  1
    187    190    209    211     1  180.0000771  1.0460000  2
    187    190    209    211     1  0.0000000  0.7531200  3
    187    190    209    215     1  0.0000000  0.6508444  3
    186    187    190    192     1  0.0000000  0.6508444  3
    186    187    190    209     1  299.6901286  -1.5060182  1
    186    187    190    209     1  274.1001175  5.1381528  2
    186    187    190    209     1  342.2101465  3.2676873  3
    185    183    186    187     1  0.0000000  1.0460000  3
    184    183    186    187     1  0.0000000  1.0460000  3
    183    186    187    190     1  0.0000000  1.6038667  3
    248    249    252    253     1  31.7950936  0.7747973  1
    248    249    252    253     1  351.9597510  5.2573257  2
    248    249    252    253     1  357.2476330  1.4847259  3
    246    244    242    248     1  0.0000000  4.9162000  2
    246    244    242    248     1  0.0000000  0.6024960  3
    244    242    248    249     1  0.0000000  1.6038667  3
    242    248    249    250     1  0.0000000  1.0460000  3
    242    248    249    251     1  0.0000000  1.0460000  3
    242    248    249    252     1  333.9801429  -1.1598843  1
    242    248    249    252     1  2.9800013  4.4603365  2
    242    248    249    252     1  29.4700126  0.7878430  3
    241    228    226    244     1  0.0000000  0.0000000  2
    237    233    232    241     1  180.0000771  14.6440000  2
    237    238    240    241     1  180.0000771  28.4512000  2
    234    233    232    241     1  180.0000771  14.6440000  2
    234    233    237    238     1  180.0000771  20.0832000  2
    233    232    241    240     1  180.0000771  22.8028000  2
    233    237    238    240     1  180.0000771  28.4512000  2
    232    233    237    238     1  180.0000771  20.0832000  2
    232    241    240    238     1  180.0000771  17.3636000  2
    231    229    228    241     1  180.0000771  7.1128000  2
    231    232    233    234     1  180.0000771  14.6440000  2
    231    232    233    237     1  180.0000771  14.6440000  2
    231    232    241    240     1  180.0000771  22.8028000  2
    229    228    226    244     1  0.0000000  0.0000000  2
    229    228    241    232     1  180.0000771  6.9036000  2
    229    228    241    240     1  180.0000771  6.9036000  2
    229    231    232    233     1  180.0000771  10.6692000  2
    229    231    232    241     1  180.0000771  10.6692000  2
    228    226    244    242     1  0.0000000  0.6508444  3
    228    226    244    246     1  0.0000000  0.6508444  3
    228    229    231    232     1  180.0000771  41.8400000  2
    228    241    232    231     1  180.0000771  22.8028000  2
    228    241    232    233     1  180.0000771  22.8028000  2
    228    241    240    238     1  180.0000771  17.3636000  2
    226    225    223    242     1  180.0000771  0.4184000  2
    226    225    223    242     1  0.0000000  1.6024720  3
    226    228    229    231     1  180.0000771  7.1128000  2
    226    228    241    232     1  180.0000771  6.9036000  2
    226    228    241    240     1  180.0000771  6.9036000  2
    226    244    242    248     1  0.0000000  0.6508444  3
    225    223    242    244     1  0.0000000  0.6508444  3
    225    223    242    248     1  0.0000000  4.9162000  2
    225    223    242    248     1  0.0000000  0.6024960  3
    225    226    228    229     1  98.2900423  3.1435856  1
    225    226    228    229     1  328.5601409  4.5857268  2
    225    226    228    229     1  50.5200217  -1.7297325  3
    225    226    228    229     1  40.9900176  0.2709140  4
    225    226    228    241     1  0.0000000  0.0000000  2
    225    226    244    242     1  0.0000000  0.6508444  3
    225    226    244    246     1  0.0000000  4.9162000  2
    225    226    244    246     1  0.0000000  0.6024960  3
    223    225    226    228     1  0.0000000  2.7196000  2
    223    225    226    228     1  0.0000000  1.6024720  3
    223    225    226    244     1  180.0000771  0.4184000  2
    223    225    226    244     1  0.0000000  1.6024720  3
    223    242    244    226     1  180.0000771  0.8368000  1
    223    242    244    226     1  180.0000771  1.0460000  2
    223    242    244    226     1  0.0000000  0.7531200  3
    223    242    244    246     1  0.0000000  0.6508444  3
    223    242    248    249     1  0.0000000  1.6038667  3
    220    223    225    226     1  180.0000771  0.4184000  2
    220    223    225    226     1  0.0000000  1.6024720  3
    220    223    242    244     1  180.0000771  0.8368000  1
    220    223    242    244     1  180.0000771  1.0460000  2
    220    223    242    244     1  0.0000000  0.7531200  3
    220    223    242    248     1  0.0000000  0.6508444  3
    219    220    223    225     1  0.0000000  0.6508444  3
    219    220    223    242     1  299.6901286  -1.5060182  1
    219    220    223    242     1  274.1001175  5.1381528  2
    219    220    223    242     1  342.2101465  3.2676873  3
    218    216    219    220     1  0.0000000  1.0460000  3
    217    216    219    220     1  0.0000000  1.0460000  3
    216    219    220    223     1  0.0000000  1.6038667  3
    281    282    285    286     1  31.7950936  0.7747973  1
    281    282    285    286     1  351.9597510  5.2573257  2
    281    282    285    286     1  357.2476330  1.4847259  3
    279    277    275    281     1  0.0000000  4.9162000  2
    279    277    275    281     1  0.0000000  0.6024960  3
    277    275    281    282     1  0.0000000  1.6038667  3
    275    281    282    283     1  0.0000000  1.0460000  3
    275    281    282    284     1  0.0000000  1.0460000  3
    275    281    282    285     1  333.9801429  -1.1598843  1
    275    281    282    285     1  2.9800013  4.4603365  2
    275    281    282    285     1  29.4700126  0.7878430  3
    274    261    259    277     1  0.0000000  0.0000000  2
    270    266    265    274     1  180.0000771  14.6440000  2
    270    271    273    274     1  180.0000771  28.4512000  2
    267    266    265    274     1  180.0000771  14.6440000  2
    267    266    270    271     1  180.0000771  20.0832000  2
    266    265    274    273     1  180.0000771  22.8028000  2
    266    270    271    273     1  180.0000771  28.4512000  2
    265    266    270    271     1  180.0000771  20.0832000  2
    265    274    273    271     1  180.0000771  17.3636000  2
    264    262    261    274     1  180.0000771  7.1128000  2
    264    265    266    267     1  180.0000771  14.6440000  2
    264    265    266    270     1  180.0000771  14.6440000  2
    264    265    274    273     1  180.0000771  22.8028000  2
    262    261    259    277     1  0.0000000  0.0000000  2
    262    261    274    265     1  180.0000771  6.9036000  2
    262    261    274    273     1  180.0000771  6.9036000  2
    262    264    265    266     1  180.0000771  10.6692000  2
    262    264    265    274     1  180.0000771  10.6692000  2
    261    259    277    275     1  0.0000000  0.6508444  3
    261    259    277    279     1  0.0000000  0.6508444  3
    261    262    264    265     1  180.0000771  41.8400000  2
    261    274    265    264     1  180.0000771  22.8028000  2
    261    274    265    266     1  180.0000771  22.8028000  2
    261    274    273    271     1  180.0000771  17.3636000  2
    259    258    256    275     1  180.0000771  0.4184000  2
    259    258    256    275     1  0.0000000  1.6024720  3
    259    261    262    264     1  180.0000771  7.1128000  2
    259    261    274    265     1  180.0000771  6.9036000  2
    259    261    274    273     1  180.0000771  6.9036000  2
    259    277    275    281     1  0.0000000  0.6508444  3
    258    256    275    277     1  0.0000000  0.6508444  3
    258    256    275    281     1  0.0000000  4.9162000  2
    258    256    275    281     1  0.0000000  0.6024960  3
    258    259    261    262     1  98.2900423  3.1435856  1
    258    259    261    262     1  328.5601409  4.5857268  2
    258    259    261    262     1  50.5200217  -1.7297325  3
    258    259    261    262     1  40.9900176  0.2709140  4
    258    259    261    274     1  0.0000000  0.0000000  2
    258    259    277    275     1  0.0000000  0.6508444  3
    258    259    277    279     1  0.0000000  4.9162000  2
    258    259    277    279     1  0.0000000  0.6024960  3
    256    258    259    261     1  0.0000000  2.7196000  2
    256    258    259    261     1  0.0000000  1.6024720  3
    256    258    259    277     1  180.0000771  0.4184000  2
    256    258    259    277     1  0.0000000  1.6024720  3
    256    275    277    259     1  180.0000771  0.8368000  1
    256    275    277    259     1  180.0000771  1.0460000  2
    256    275    277    259     1  0.0000000  0.7531200  3
    256    275    277    279     1  0.0000000  0.6508444  3
    256    275    281    282     1  0.0000000  1.6038667  3
    253    256    258    259     1  180.0000771  0.4184000  2
    253    256    258    259     1  0.0000000  1.6024720  3
    253    256    275    277     1  180.0000771  0.8368000  1
    253    256    275    277     1  180.0000771  1.0460000  2
    253    256    275    277     1  0.0000000  0.7531200  3
    253    256    275    281     1  0.0000000  0.6508444  3
    252    253    256    258     1  0.0000000  0.6508444  3
    252    253    256    275     1  299.6901286  -1.5060182  1
    252    253    256    275     1  274.1001175  5.1381528  2
    252    253    256    275     1  342.2101465  3.2676873  3
    251    249    252    253     1  0.0000000  1.0460000  3
    250    249    252    253     1  0.0000000  1.0460000  3
    249    252    253    256     1  0.0000000  1.6038667  3
    312    313    316    317     1  31.7950936  0.7747973  1
    312    313    316    317     1  351.9597510  5.2573257  2
    312    313    316    317     1  357.2476330  1.4847259  3
    310    308    306    312     1  0.0000000  4.9162000  2
    310    308    306    312     1  0.0000000  0.6024960  3
    308    306    312    313     1  0.0000000  1.6038667  3
    306    312    313    314     1  0.0000000  1.0460000  3
    306    312    313    315     1  0.0000000  1.0460000  3
    306    312    313    316     1  333.9801429  -1.1598843  1
    306    312    313    316     1  2.9800013  4.4603365  2
    306    312    313    316     1  29.4700126  0.7878430  3
    304    294    292    308     1  0.0000000  0.0000000  2
    300    299    303    304     1  180.0000771  20.0832000  2
    299    303    304    305     1  180.0000771  16.7360000  2
    297    295    294    304     1  180.0000771  7.7404000  2
    297    299    303    304     1  180.0000771  20.0832000  2
    295    294    292    308     1  0.0000000  0.0000000  2
    295    294    304    303     1  180.0000771  6.0668000  2
    295    294    304    305     1  180.0000771  6.0668000  2
    295    297    299    300     1  180.0000771  10.6692000  2
    295    297    299    303     1  180.0000771  10.6692000  2
    294    292    308    306     1  0.0000000  0.6508444  3
    294    292    308    310     1  0.0000000  0.6508444  3
    294    295    297    299     1  180.0000771  27.8236000  2
    294    304    303    299     1  180.0000771  16.7360000  2
    292    291    289    306     1  180.0000771  0.4184000  2
    292    291    289    306     1  0.0000000  1.6024720  3
    292    294    295    297     1  180.0000771  7.7404000  2
    292    294    304    303     1  180.0000771  6.0668000  2
    292    294    304    305     1  180.0000771  6.0668000  2
    292    308    306    312     1  0.0000000  0.6508444  3
    291    289    306    308     1  0.0000000  0.6508444  3
    291    289    306    312     1  0.0000000  4.9162000  2
    291    289    306    312     1  0.0000000  0.6024960  3
    291    292    294    295     1  111.1800474  2.8397101  1
    291    292    294    295     1  340.2301459  5.0000223  2
    291    292    294    295     1  28.2000121  -3.7349982  3
    291    292    294    295     1  355.0801519  -1.2977304  4
    291    292    294    304     1  0.0000000  0.0000000  2
    291    292    308    306     1  0.0000000  0.6508444  3
    291    292    308    310     1  0.0000000  4.9162000  2
    291    292    308    310     1  0.0000000  0.6024960  3
    289    291    292    294     1  0.0000000  2.7196000  2
    289    291    292    294     1  0.0000000  1.6024720  3
    289    291    292    308     1  180.0000771  0.4184000  2
    289    291    292    308     1  0.0000000  1.6024720  3
    289    306    308    292     1  180.0000771  0.8368000  1
    289    306    308    292     1  180.0000771  1.0460000  2
    289    306    308    292     1  0.0000000  0.7531200  3
    289    306    308    310     1  0.0000000  0.6508444  3
    289    306    312    313     1  0.0000000  1.6038667  3
    286    289    291    292     1  180.0000771  0.4184000  2
    286    289    291    292     1  0.0000000  1.6024720  3
    286    289    306    308     1  180.0000771  0.8368000  1
    286    289    306    308     1  180.0000771  1.0460000  2
    286    289    306    308     1  0.0000000  0.7531200  3
    286    289    306    312     1  0.0000000  0.6508444  3
    285    286    289    291     1  0.0000000  0.6508444  3
    285    286    289    306     1  299.6901286  -1.5060182  1
    285    286    289    306     1  274.1001175  5.1381528  2
    285    286    289    306     1  342.2101465  3.2676873  3
    284    282    285    286     1  0.0000000  1.0460000  3
    283    282    285    286     1  0.0000000  1.0460000  3
    282    285    286    289     1  0.0000000  1.6038667  3
    346    347    350    351     1  31.7950936  0.7747973  1
    346    347    350    351     1  351.9597510  5.2573257  2
    346    347    350    351     1  357.2476330  1.4847259  3
    344    342    340    346     1  0.0000000  4.9162000  2
    344    342    340    346     1  0.0000000  0.6024960  3
    342    340    346    347     1  0.0000000  1.6038667  3
    340    346    347    348     1  0.0000000  1.0460000  3
    340    346    347    349     1  0.0000000  1.0460000  3
    340    346    347    350     1  333.9801429  -1.1598843  1
    340    346    347    350     1  2.9800013  4.4603365  2
    340    346    347    350     1  29.4700126  0.7878430  3
    339    325    323    342     1  0.0000000  0.0000000  2
    335    334    338    339     1  180.0000771  20.0832000  2
    332    330    329    339     1  180.0000771  12.5520000  2
    332    334    338    339     1  180.0000771  20.0832000  2
    331    330    329    339     1  180.0000771  12.5520000  2
    331    330    332    334     1  180.0000771  5.6484000  2
    330    329    339    338     1  180.0000771  22.8028000  2
    330    332    334    335     1  180.0000771  6.2760000  2
    330    332    334    338     1  180.0000771  6.2760000  2
    329    330    332    334     1  180.0000771  5.6484000  2
    329    339    338    334     1  180.0000771  17.3636000  2
    328    326    325    339     1  180.0000771  7.1128000  2
    328    329    330    331     1  180.0000771  12.5520000  2
    328    329    330    332     1  180.0000771  12.5520000  2
    328    329    339    338     1  180.0000771  22.8028000  2
    326    325    323    342     1  0.0000000  0.0000000  2
    326    325    339    329     1  180.0000771  6.9036000  2
    326    325    339    338     1  180.0000771  6.9036000  2
    326    328    329    330     1  180.0000771  10.6692000  2
    326    328    329    339     1  180.0000771  10.6692000  2
    325    323    342    340     1  0.0000000  0.6508444  3
    325    323    342    344     1  0.0000000  0.6508444  3
    325    326    328    329     1  180.0000771  41.8400000  2
    325    339    329    328     1  180.0000771  22.8028000  2
    325    339    329    330     1  180.0000771  22.8028000  2
    325    339    338    334     1  180.0000771  17.3636000  2
    323    322    320    340     1  180.0000771  0.4184000  2
    323    322    320    340     1  0.0000000  1.6024720  3
    323    325    326    328     1  180.0000771  7.1128000  2
    323    325    339    329     1  180.0000771  6.9036000  2
    323    325    339    338     1  180.0000771  6.9036000  2
    323    342    340    346     1  0.0000000  0.6508444  3
    322    320    340    342     1  0.0000000  0.6508444  3
    322    320    340    346     1  0.0000000  4.9162000  2
    322    320    340    346     1  0.0000000  0.6024960  3
    322    323    325    326     1  287.1401229  -3.8169126  1
    322    323    325    326     1  331.9701422  5.7662424  2
    322    323    325    326     1  27.7600119  -1.7805138  3
    322    323    325    326     1  328.1301407  0.2514082  4
    322    323    325    339     1  0.0000000  0.0000000  2
    322    323    342    340     1  0.0000000  0.6508444  3
    322    323    342    344     1  0.0000000  4.9162000  2
    322    323    342    344     1  0.0000000  0.6024960  3
    320    322    323    325     1  0.0000000  2.7196000  2
    320    322    323    325     1  0.0000000  1.6024720  3
    320    322    323    342     1  180.0000771  0.4184000  2
    320    322    323    342     1  0.0000000  1.6024720  3
    320    340    342    323     1  180.0000771  0.8368000  1
    320    340    342    323     1  180.0000771  1.0460000  2
    320    340    342    323     1  0.0000000  0.7531200  3
    320    340    342    344     1  0.0000000  0.6508444  3
    320    340    346    347     1  0.0000000  1.6038667  3
    317    320    322    323     1  180.0000771  0.4184000  2
    317    320    322    323     1  0.0000000  1.6024720  3
    317    320    340    342     1  180.0000771  0.8368000  1
    317    320    340    342     1  180.0000771  1.0460000  2
    317    320    340    342     1  0.0000000  0.7531200  3
    317    320    340    346     1  0.0000000  0.6508444  3
    316    317    320    322     1  0.0000000  0.6508444  3
    316    317    320    340     1  299.6901286  -1.5060182  1
    316    317    320    340     1  274.1001175  5.1381528  2
    316    317    320    340     1  342.2101465  3.2676873  3
    315    313    316    317     1  0.0000000  1.0460000  3
    314    313    316    317     1  0.0000000  1.0460000  3
    313    316    317    320     1  0.0000000  1.6038667  3
    380    381    384    385     1  31.7950936  0.7747973  1
    380    381    384    385     1  351.9597510  5.2573257  2
    380    381    384    385     1  357.2476330  1.4847259  3
    378    376    374    380     1  0.0000000  4.9162000  2
    378    376    374    380     1  0.0000000  0.6024960  3
    376    374    380    381     1  0.0000000  1.6038667  3
    374    380    381    382     1  0.0000000  1.0460000  3
    374    380    381    383     1  0.0000000  1.0460000  3
    374    380    381    384     1  333.9801429  -1.1598843  1
    374    380    381    384     1  2.9800013  4.4603365  2
    374    380    381    384     1  29.4700126  0.7878430  3
    373    359    357    376     1  0.0000000  0.0000000  2
    369    368    372    373     1  180.0000771  20.0832000  2
    366    364    363    373     1  180.0000771  12.5520000  2
    366    368    372    373     1  180.0000771  20.0832000  2
    365    364    363    373     1  180.0000771  12.5520000  2
    365    364    366    368     1  180.0000771  5.6484000  2
    364    363    373    372     1  180.0000771  22.8028000  2
    364    366    368    369     1  180.0000771  6.2760000  2
    364    366    368    372     1  180.0000771  6.2760000  2
    363    364    366    368     1  180.0000771  5.6484000  2
    363    373    372    368     1  180.0000771  17.3636000  2
    362    360    359    373     1  180.0000771  7.1128000  2
    362    363    364    365     1  180.0000771  12.5520000  2
    362    363    364    366     1  180.0000771  12.5520000  2
    362    363    373    372     1  180.0000771  22.8028000  2
    360    359    357    376     1  0.0000000  0.0000000  2
    360    359    373    363     1  180.0000771  6.9036000  2
    360    359    373    372     1  180.0000771  6.9036000  2
    360    362    363    364     1  180.0000771  10.6692000  2
    360    362    363    373     1  180.0000771  10.6692000  2
    359    357    376    374     1  0.0000000  0.6508444  3
    359    357    376    378     1  0.0000000  0.6508444  3
    359    360    362    363     1  180.0000771  41.8400000  2
    359    373    363    362     1  180.0000771  22.8028000  2
    359    373    363    364     1  180.0000771  22.8028000  2
    359    373    372    368     1  180.0000771  17.3636000  2
    357    356    354    374     1  180.0000771  0.4184000  2
    357    356    354    374     1  0.0000000  1.6024720  3
    357    359    360    362     1  180.0000771  7.1128000  2
    357    359    373    363     1  180.0000771  6.9036000  2
    357    359    373    372     1  180.0000771  6.9036000  2
    357    376    374    380     1  0.0000000  0.6508444  3
    356    354    374    376     1  0.0000000  0.6508444  3
    356    354    374    380     1  0.0000000  4.9162000  2
    356    354    374    380     1  0.0000000  0.6024960  3
    356    357    359    360     1  287.1401229  -3.8169126  1
    356    357    359    360     1  331.9701422  5.7662424  2
    356    357    359    360     1  27.7600119  -1.7805138  3
    356    357    359    360     1  328.1301407  0.2514082  4
    356    357    359    373     1  0.0000000  0.0000000  2
    356    357    376    374     1  0.0000000  0.6508444  3
    356    357    376    378     1  0.0000000  4.9162000  2
    356    357    376    378     1  0.0000000  0.6024960  3
    354    356    357    359     1  0.0000000  2.7196000  2
    354    356    357    359     1  0.0000000  1.6024720  3
    354    356    357    376     1  180.0000771  0.4184000  2
    354    356    357    376     1  0.0000000  1.6024720  3
    354    374    376    357     1  180.0000771  0.8368000  1
    354    374    376    357     1  180.0000771  1.0460000  2
    354    374    376    357     1  0.0000000  0.7531200  3
    354    374    376    378     1  0.0000000  0.6508444  3
    354    374    380    381     1  0.0000000  1.6038667  3
    351    354    356    357     1  180.0000771  0.4184000  2
    351    354    356    357     1  0.0000000  1.6024720  3
    351    354    374    376     1  180.0000771  0.8368000  1
    351    354    374    376     1  180.0000771  1.0460000  2
    351    354    374    376     1  0.0000000  0.7531200  3
    351    354    374    380     1  0.0000000  0.6508444  3
    350    351    354    356     1  0.0000000  0.6508444  3
    350    351    354    374     1  299.6901286  -1.5060182  1
    350    351    354    374     1  274.1001175  5.1381528  2
    350    351    354    374     1  342.2101465  3.2676873  3
    349    347    350    351     1  0.0000000  1.0460000  3
    348    347    350    351     1  0.0000000  1.0460000  3
    347    350    351    354     1  0.0000000  1.6038667  3
    414    415    418    419     1  31.7950936  0.7747973  1
    414    415    418    419     1  351.9597510  5.2573257  2
    414    415    418    419     1  357.2476330  1.4847259  3
    412    410    408    414     1  0.0000000  4.9162000  2
    412    410    408    414     1  0.0000000  0.6024960  3
    410    408    414    415     1  0.0000000  1.6038667  3
    408    414    415    416     1  0.0000000  1.0460000  3
    408    414    415    417     1  0.0000000  1.0460000  3
    408    414    415    418     1  333.9801429  -1.1598843  1
    408    414    415    418     1  2.9800013  4.4603365  2
    408    414    415    418     1  29.4700126  0.7878430  3
    407    393    391    410     1  0.0000000  0.0000000  2
    403    402    406    407     1  180.0000771  20.0832000  2
    400    398    397    407     1  180.0000771  12.5520000  2
    400    402    406    407     1  180.0000771  20.0832000  2
    399    398    397    407     1  180.0000771  12.5520000  2
    399    398    400    402     1  180.0000771  5.6484000  2
    398    397    407    406     1  180.0000771  22.8028000  2
    398    400    402    403     1  180.0000771  6.2760000  2
    398    400    402    406     1  180.0000771  6.2760000  2
    397    398    400    402     1  180.0000771  5.6484000  2
    397    407    406    402     1  180.0000771  17.3636000  2
    396    394    393    407     1  180.0000771  7.1128000  2
    396    397    398    399     1  180.0000771  12.5520000  2
    396    397    398    400     1  180.0000771  12.5520000  2
    396    397    407    406     1  180.0000771  22.8028000  2
    394    393    391    410     1  0.0000000  0.0000000  2
    394    393    407    397     1  180.0000771  6.9036000  2
    394    393    407    406     1  180.0000771  6.9036000  2
    394    396    397    398     1  180.0000771  10.6692000  2
    394    396    397    407     1  180.0000771  10.6692000  2
    393    391    410    408     1  0.0000000  0.6508444  3
    393    391    410    412     1  0.0000000  0.6508444  3
    393    394    396    397     1  180.0000771  41.8400000  2
    393    407    397    396     1  180.0000771  22.8028000  2
    393    407    397    398     1  180.0000771  22.8028000  2
    393    407    406    402     1  180.0000771  17.3636000  2
    391    390    388    408     1  180.0000771  0.4184000  2
    391    390    388    408     1  0.0000000  1.6024720  3
    391    393    394    396     1  180.0000771  7.1128000  2
    391    393    407    397     1  180.0000771  6.9036000  2
    391    393    407    406     1  180.0000771  6.9036000  2
    391    410    408    414     1  0.0000000  0.6508444  3
    390    388    408    410     1  0.0000000  0.6508444  3
    390    388    408    414     1  0.0000000  4.9162000  2
    390    388    408    414     1  0.0000000  0.6024960  3
    390    391    393    394     1  287.1401229  -3.8169126  1
    390    391    393    394     1  331.9701422  5.7662424  2
    390    391    393    394     1  27.7600119  -1.7805138  3
    390    391    393    394     1  328.1301407  0.2514082  4
    390    391    393    407     1  0.0000000  0.0000000  2
    390    391    410    408     1  0.0000000  0.6508444  3
    390    391    410    412     1  0.0000000  4.9162000  2
    390    391    410    412     1  0.0000000  0.6024960  3
    388    390    391    393     1  0.0000000  2.7196000  2
    388    390    391    393     1  0.0000000  1.6024720  3
    388    390    391    410     1  180.0000771  0.4184000  2
    388    390    391    410     1  0.0000000  1.6024720  3
    388    408    410    391     1  180.0000771  0.8368000  1
    388    408    410    391     1  180.0000771  1.0460000  2
    388    408    410    391     1  0.0000000  0.7531200  3
    388    408    410    412     1  0.0000000  0.6508444  3
    388    408    414    415     1  0.0000000  1.6038667  3
    385    388    390    391     1  180.0000771  0.4184000  2
    385    388    390    391     1  0.0000000  1.6024720  3
    385    388    408    410     1  180.0000771  0.8368000  1
    385    388    408    410     1  180.0000771  1.0460000  2
    385    388    408    410     1  0.0000000  0.7531200  3
    385    388    408    414     1  0.0000000  0.6508444  3
    384    385    388    390     1  0.0000000  0.6508444  3
    384    385    388    408     1  299.6901286  -1.5060182  1
    384    385    388    408     1  274.1001175  5.1381528  2
    384    385    388    408     1  342.2101465  3.2676873  3
    383    381    384    385     1  0.0000000  1.0460000  3
    382    381    384    385     1  0.0000000  1.0460000  3
    381    384    385    388     1  0.0000000  1.6038667  3
    444    445    448    449     1  31.7950936  0.7747973  1
    444    445    448    449     1  351.9597510  5.2573257  2
    444    445    448    449     1  357.2476330  1.4847259  3
    442    440    438    444     1  0.0000000  4.9162000  2
    442    440    438    444     1  0.0000000  0.6024960  3
    440    438    444    445     1  0.0000000  1.6038667  3
    438    444    445    446     1  0.0000000  1.0460000  3
    438    444    445    447     1  0.0000000  1.0460000  3
    438    444    445    448     1  333.9801429  -1.1598843  1
    438    444    445    448     1  2.9800013  4.4603365  2
    438    444    445    448     1  29.4700126  0.7878430  3
    436    427    425    440     1  0.0000000  0.0000000  2
    433    432    434    436     1  180.0000771  5.6484000  2
    432    434    436    437     1  180.0000771  5.6484000  2
    430    428    427    436     1  180.0000771  7.7404000  2
    430    432    434    436     1  180.0000771  5.6484000  2
    428    427    425    440     1  0.0000000  0.0000000  2
    428    427    436    434     1  180.0000771  6.0668000  2
    428    427    436    437     1  180.0000771  6.0668000  2
    428    430    432    433     1  180.0000771  9.1002000  2
    428    430    432    433     1  0.0000000  1.2552000  3
    428    430    432    434     1  180.0000771  9.1002000  2
    427    425    440    438     1  0.0000000  0.6508444  3
    427    425    440    442     1  0.0000000  0.6508444  3
    427    428    430    432     1  180.0000771  27.8236000  2
    427    436    434    432     1  180.0000771  5.6484000  2
    425    424    422    438     1  180.0000771  0.4184000  2
    425    424    422    438     1  0.0000000  1.6024720  3
    425    427    428    430     1  180.0000771  7.7404000  2
    425    427    436    434     1  180.0000771  6.0668000  2
    425    427    436    437     1  180.0000771  6.0668000  2
    425    440    438    444     1  0.0000000  0.6508444  3
    424    422    438    440     1  0.0000000  0.6508444  3
    424    422    438    444     1  0.0000000  4.9162000  2
    424    422    438    444     1  0.0000000  0.6024960  3
    424    425    427    428     1  147.4600633  2.5402277  1
    424    425    427    428     1  346.4201487  5.4288069  2
    424    425    427    428     1  38.1300163  -2.0913808  3
    424    425    427    428     1  348.0001491  -0.6909207  4
    424    425    427    436     1  0.0000000  0.0000000  2
    424    425    440    438     1  0.0000000  0.6508444  3
    424    425    440    442     1  0.0000000  4.9162000  2
    424    425    440    442     1  0.0000000  0.6024960  3
    422    424    425    427     1  0.0000000  2.7196000  2
    422    424    425    427     1  0.0000000  1.6024720  3
    422    424    425    440     1  180.0000771  0.4184000  2
    422    424    425    440     1  0.0000000  1.6024720  3
    422    438    440    425     1  180.0000771  0.8368000  1
    422    438    440    425     1  180.0000771  1.0460000  2
    422    438    440    425     1  0.0000000  0.7531200  3
    422    438    440    442     1  0.0000000  0.6508444  3
    422    438    444    445     1  0.0000000  1.6038667  3
    419    422    424    425     1  180.0000771  0.4184000  2
    419    422    424    425     1  0.0000000  1.6024720  3
    419    422    438    440     1  180.0000771  0.8368000  1
    419    422    438    440     1  180.0000771  1.0460000  2
    419    422    438    440     1  0.0000000  0.7531200  3
    419    422    438    444     1  0.0000000  0.6508444  3
    418    419    422    424     1  0.0000000  0.6508444  3
    418    419    422    438     1  299.6901286  -1.5060182  1
    418    419    422    438     1  274.1001175  5.1381528  2
    418    419    422    438     1  342.2101465  3.2676873  3
    417    415    418    419     1  0.0000000  1.0460000  3
    416    415    418    419     1  0.0000000  1.0460000  3
    415    418    419    422     1  0.0000000  1.6038667  3
    474    475    478    479     1  31.7950936  0.7747973  1
    474    475    478    479     1  351.9597510  5.2573257  2
    474    475    478    479     1  357.2476330  1.4847259  3
    472    470    468    474     1  0.0000000  4.9162000  2
    472    470    468    474     1  0.0000000  0.6024960  3
    470    468    474    475     1  0.0000000  1.6038667  3
    468    474    475    476     1  0.0000000  1.0460000  3
    468    474    475    477     1  0.0000000  1.0460000  3
    468    474    475    478     1  333.9801429  -1.1598843  1
    468    474    475    478     1  2.9800013  4.4603365  2
    468    474    475    478     1  29.4700126  0.7878430  3
    466    457    455    470     1  0.0000000  0.0000000  2
    463    462    464    466     1  180.0000771  5.6484000  2
    462    464    466    467     1  180.0000771  5.6484000  2
    460    458    457    466     1  180.0000771  7.7404000  2
    460    462    464    466     1  180.0000771  5.6484000  2
    458    457    455    470     1  0.0000000  0.0000000  2
    458    457    466    464     1  180.0000771  6.0668000  2
    458    457    466    467     1  180.0000771  6.0668000  2
    458    460    462    463     1  180.0000771  9.1002000  2
    458    460    462    463     1  0.0000000  1.2552000  3
    458    460    462    464     1  180.0000771  9.1002000  2
    457    455    470    468     1  0.0000000  0.6508444  3
    457    455    470    472     1  0.0000000  0.6508444  3
    457    458    460    462     1  180.0000771  27.8236000  2
    457    466    464    462     1  180.0000771  5.6484000  2
    455    454    452    468     1  180.0000771  0.4184000  2
    455    454    452    468     1  0.0000000  1.6024720  3
    455    457    458    460     1  180.0000771  7.7404000  2
    455    457    466    464     1  180.0000771  6.0668000  2
    455    457    466    467     1  180.0000771  6.0668000  2
    455    470    468    474     1  0.0000000  0.6508444  3
    454    452    468    470     1  0.0000000  0.6508444  3
    454    452    468    474     1  0.0000000  4.9162000  2
    454    452    468    474     1  0.0000000  0.6024960  3
    454    455    457    458     1  147.4600633  2.5402277  1
    454    455    457    458     1  346.4201487  5.4288069  2
    454    455    457    458     1  38.1300163  -2.0913808  3
    454    455    457    458     1  348.0001491  -0.6909207  4
    454    455    457    466     1  0.0000000  0.0000000  2
    454    455    470    468     1  0.0000000  0.6508444  3
    454    455    470    472     1  0.0000000  4.9162000  2
    454    455    470    472     1  0.0000000  0.6024960  3
    452    454    455    457     1  0.0000000  2.7196000  2
    452    454    455    457     1  0.0000000  1.6024720  3
    452    454    455    470     1  180.0000771  0.4184000  2
    452    454    455    470     1  0.0000000  1.6024720  3
    452    468    470    455     1  180.0000771  0.8368000  1
    452    468    470    455     1  180.0000771  1.0460000  2
    452    468    470    455     1  0.0000000  0.7531200  3
    452    468    470    472     1  0.0000000  0.6508444  3
    452    468    474    475     1  0.0000000  1.6038667  3
    449    452    454    455     1  180.0000771  0.4184000  2
    449    452    454    455     1  0.0000000  1.6024720  3
    449    452    468    470     1  180.0000771  0.8368000  1
    449    452    468    470     1  180.0000771  1.0460000  2
    449    452    468    470     1  0.0000000  0.7531200  3
    449    452    468    474     1  0.0000000  0.6508444  3
    448    449    452    454     1  0.0000000  0.6508444  3
    448    449    452    468     1  299.6901286  -1.5060182  1
    448    449    452    468     1  274.1001175  5.1381528  2
    448    449    452    468     1  342.2101465  3.2676873  3
    447    445    448    449     1  0.0000000  1.0460000  3
    446    445    448    449     1  0.0000000  1.0460000  3
    445    448    449    452     1  0.0000000  1.6038667  3
    504    505    508    509     1  31.7950936  0.7747973  1
    504    505    508    509     1  351.9597510  5.2573257  2
    504    505    508    509     1  357.2476330  1.4847259  3
    502    500    498    504     1  0.0000000  4.9162000  2
    502    500    498    504     1  0.0000000  0.6024960  3
    500    498    504    505     1  0.0000000  1.6038667  3
    498    504    505    506     1  0.0000000  1.0460000  3
    498    504    505    507     1  0.0000000  1.0460000  3
    498    504    505    508     1  333.9801429  -1.1598843  1
    498    504    505    508     1  2.9800013  4.4603365  2
    498    504    505    508     1  29.4700126  0.7878430  3
    496    487    485    500     1  0.0000000  0.0000000  2
    493    492    494    496     1  180.0000771  5.6484000  2
    492    494    496    497     1  180.0000771  5.6484000  2
    490    488    487    496     1  180.0000771  7.7404000  2
    490    492    494    496     1  180.0000771  5.6484000  2
    488    487    485    500     1  0.0000000  0.0000000  2
    488    487    496    494     1  180.0000771  6.0668000  2
    488    487    496    497     1  180.0000771  6.0668000  2
    488    490    492    493     1  180.0000771  9.1002000  2
    488    490    492    493     1  0.0000000  1.2552000  3
    488    490    492    494     1  180.0000771  9.1002000  2
    487    485    500    498     1  0.0000000  0.6508444  3
    487    485    500    502     1  0.0000000  0.6508444  3
    487    488    490    492     1  180.0000771  27.8236000  2
    487    496    494    492     1  180.0000771  5.6484000  2
    485    484    482    498     1  180.0000771  0.4184000  2
    485    484    482    498     1  0.0000000  1.6024720  3
    485    487    488    490     1  180.0000771  7.7404000  2
    485    487    496    494     1  180.0000771  6.0668000  2
    485    487    496    497     1  180.0000771  6.0668000  2
    485    500    498    504     1  0.0000000  0.6508444  3
    484    482    498    500     1  0.0000000  0.6508444  3
    484    482    498    504     1  0.0000000  4.9162000  2
    484    482    498    504     1  0.0000000  0.6024960  3
    484    485    487    488     1  147.4600633  2.5402277  1
    484    485    487    488     1  346.4201487  5.4288069  2
    484    485    487    488     1  38.1300163  -2.0913808  3
    484    485    487    488     1  348.0001491  -0.6909207  4
    484    485    487    496     1  0.0000000  0.0000000  2
    484    485    500    498     1  0.0000000  0.6508444  3
    484    485    500    502     1  0.0000000  4.9162000  2
    484    485    500    502     1  0.0000000  0.6024960  3
    482    484    485    487     1  0.0000000  2.7196000  2
    482    484    485    487     1  0.0000000  1.6024720  3
    482    484    485    500     1  180.0000771  0.4184000  2
    482    484    485    500     1  0.0000000  1.6024720  3
    482    498    500    485     1  180.0000771  0.8368000  1
    482    498    500    485     1  180.0000771  1.0460000  2
    482    498    500    485     1  0.0000000  0.7531200  3
    482    498    500    502     1  0.0000000  0.6508444  3
    482    498    504    505     1  0.0000000  1.6038667  3
    479    482    484    485     1  180.0000771  0.4184000  2
    479    482    484    485     1  0.0000000  1.6024720  3
    479    482    498    500     1  180.0000771  0.8368000  1
    479    482    498    500     1  180.0000771  1.0460000  2
    479    482    498    500     1  0.0000000  0.7531200  3
    479    482    498    504     1  0.0000000  0.6508444  3
    478    479    482    484     1  0.0000000  0.6508444  3
    478    479    482    498     1  299.6901286  -1.5060182  1
    478    479    482    498     1  274.1001175  5.1381528  2
    478    479    482    498     1  342.2101465  3.2676873  3
    477    475    478    479     1  0.0000000  1.0460000  3
    476    475    478    479     1  0.0000000  1.0460000  3
    475    478    479    482     1  0.0000000  1.6038667  3
    538    539    542    543     1  31.7950936  0.7747973  1
    538    539    542    543     1  351.9597510  5.2573257  2
    538    539    542    543     1  357.2476330  1.4847259  3
    536    534    532    538     1  0.0000000  4.9162000  2
    536    534    532    538     1  0.0000000  0.6024960  3
    534    532    538    539     1  0.0000000  1.6038667  3
    532    538    539    540     1  0.0000000  1.0460000  3
    532    538    539    541     1  0.0000000  1.0460000  3
    532    538    539    542     1  333.9801429  -1.1598843  1
    532    538    539    542     1  2.9800013  4.4603365  2
    532    538    539    542     1  29.4700126  0.7878430  3
    531    517    515    534     1  0.0000000  0.0000000  2
    527    526    530    531     1  180.0000771  20.0832000  2
    524    522    521    531     1  180.0000771  12.5520000  2
    524    526    530    531     1  180.0000771  20.0832000  2
    523    522    521    531     1  180.0000771  12.5520000  2
    523    522    524    526     1  180.0000771  5.6484000  2
    522    521    531    530     1  180.0000771  22.8028000  2
    522    524    526    527     1  180.0000771  6.2760000  2
    522    524    526    530     1  180.0000771  6.2760000  2
    521    522    524    526     1  180.0000771  5.6484000  2
    521    531    530    526     1  180.0000771  17.3636000  2
    520    518    517    531     1  180.0000771  7.1128000  2
    520    521    522    523     1  180.0000771  12.5520000  2
    520    521    522    524     1  180.0000771  12.5520000  2
    520    521    531    530     1  180.0000771  22.8028000  2
    518    517    515    534     1  0.0000000  0.0000000  2
    518    517    531    521     1  180.0000771  6.9036000  2
    518    517    531    530     1  180.0000771  6.9036000  2
    518    520    521    522     1  180.0000771  10.6692000  2
    518    520    521    531     1  180.0000771  10.6692000  2
    517    515    534    532     1  0.0000000  0.6508444  3
    517    515    534    536     1  0.0000000  0.6508444  3
    517    518    520    521     1  180.0000771  41.8400000  2
    517    531    521    520     1  180.0000771  22.8028000  2
    517    531    521    522     1  180.0000771  22.8028000  2
    517    531    530    526     1  180.0000771  17.3636000  2
    515    514    512    532     1  180.0000771  0.4184000  2
    515    514    512    532     1  0.0000000  1.6024720  3
    515    517    518    520     1  180.0000771  7.1128000  2
    515    517    531    521     1  180.0000771  6.9036000  2
    515    517    531    530     1  180.0000771  6.9036000  2
    515    534    532    538     1  0.0000000  0.6508444  3
    514    512    532    534     1  0.0000000  0.6508444  3
    514    512    532    538     1  0.0000000  4.9162000  2
    514    512    532    538     1  0.0000000  0.6024960  3
    514    515    517    518     1  287.1401229  -3.8169126  1
    514    515    517    518     1  331.9701422  5.7662424  2
    514    515    517    518     1  27.7600119  -1.7805138  3
    514    515    517    518     1  328.1301407  0.2514082  4
    514    515    517    531     1  0.0000000  0.0000000  2
    514    515    534    532     1  0.0000000  0.6508444  3
    514    515    534    536     1  0.0000000  4.9162000  2
    514    515    534    536     1  0.0000000  0.6024960  3
    512    514    515    517     1  0.0000000  2.7196000  2
    512    514    515    517     1  0.0000000  1.6024720  3
    512    514    515    534     1  180.0000771  0.4184000  2
    512    514    515    534     1  0.0000000  1.6024720  3
    512    532    534    515     1  180.0000771  0.8368000  1
    512    532    534    515     1  180.0000771  1.0460000  2
    512    532    534    515     1  0.0000000  0.7531200  3
    512    532    534    536     1  0.0000000  0.6508444  3
    512    532    538    539     1  0.0000000  1.6038667  3
    509    512    514    515     1  180.0000771  0.4184000  2
    509    512    514    515     1  0.0000000  1.6024720  3
    509    512    532    534     1  180.0000771  0.8368000  1
    509    512    532    534     1  180.0000771  1.0460000  2
    509    512    532    534     1  0.0000000  0.7531200  3
    509    512    532    538     1  0.0000000  0.6508444  3
    508    509    512    514     1  0.0000000  0.6508444  3
    508    509    512    532     1  299.6901286  -1.5060182  1
    508    509    512    532     1  274.1001175  5.1381528  2
    508    509    512    532     1  342.2101465  3.2676873  3
    507    505    508    509     1  0.0000000  1.0460000  3
    506    505    508    509     1  0.0000000  1.0460000  3
    505    508    509    512     1  0.0000000  1.6038667  3
    569    570    573    574     1  31.7950936  0.7747973  1
    569    570    573    574     1  351.9597510  5.2573257  2
    569    570    573    574     1  357.2476330  1.4847259  3
    567    565    563    569     1  0.0000000  4.9162000  2
    567    565    563    569     1  0.0000000  0.6024960  3
    565    563    569    570     1  0.0000000  1.6038667  3
    563    569    570    571     1  0.0000000  1.0460000  3
    563    569    570    572     1  0.0000000  1.0460000  3
    563    569    570    573     1  333.9801429  -1.1598843  1
    563    569    570    573     1  2.9800013  4.4603365  2
    563    569    570    573     1  29.4700126  0.7878430  3
    561    551    549    565     1  0.0000000  0.0000000  2
    557    556    560    561     1  180.0000771  20.0832000  2
    556    560    561    562     1  180.0000771  16.7360000  2
    554    552    551    561     1  180.0000771  7.7404000  2
    554    556    560    561     1  180.0000771  20.0832000  2
    552    551    549    565     1  0.0000000  0.0000000  2
    552    551    561    560     1  180.0000771  6.0668000  2
    552    551    561    562     1  180.0000771  6.0668000  2
    552    554    556    557     1  180.0000771  10.6692000  2
    552    554    556    560     1  180.0000771  10.6692000  2
    551    549    565    563     1  0.0000000  0.6508444  3
    551    549    565    567     1  0.0000000  0.6508444  3
    551    552    554    556     1  180.0000771  27.8236000  2
    551    561    560    556     1  180.0000771  16.7360000  2
    549    548    546    563     1  180.0000771  0.4184000  2
    549    548    546    563     1  0.0000000  1.6024720  3
    549    551    552    554     1  180.0000771  7.7404000  2
    549    551    561    560     1  180.0000771  6.0668000  2
    549    551    561    562     1  180.0000771  6.0668000  2
    549    565    563    569     1  0.0000000  0.6508444  3
    548    546    563    565     1  0.0000000  0.6508444  3
    548    546    563    569     1  0.0000000  4.9162000  2
    548    546    563    569     1  0.0000000  0.6024960  3
    548    549    551    552     1  111.1800474  2.8397101  1
    548    549    551    552     1  340.2301459  5.0000223  2
    548    549    551    552     1  28.2000121  -3.7349982  3
    548    549    551    552     1  355.0801519  -1.2977304  4
    548    549    551    561     1  0.0000000  0.0000000  2
    548    549    565    563     1  0.0000000  0.6508444  3
    548    549    565    567     1  0.0000000  4.9162000  2
    548    549    565    567     1  0.0000000  0.6024960  3
    546    548    549    551     1  0.0000000  2.7196000  2
    546    548    549    551     1  0.0000000  1.6024720  3
    546    548    549    565     1  180.0000771  0.4184000  2
    546    548    549    565     1  0.0000000  1.6024720  3
    546    563    565    549     1  180.0000771  0.8368000  1
    546    563    565    549     1  180.0000771  1.0460000  2
    546    563    565    549     1  0.0000000  0.7531200  3
    546    563    565    567     1  0.0000000  0.6508444  3
    546    563    569    570     1  0.0000000  1.6038667  3
    543    546    548    549     1  180.0000771  0.4184000  2
    543    546    548    549     1  0.0000000  1.6024720  3
    543    546    563    565     1  180.0000771  0.8368000  1
    543    546    563    565     1  180.0000771  1.0460000  2
    543    546    563    565     1  0.0000000  0.7531200  3
    543    546    563    569     1  0.0000000  0.6508444  3
    542    543    546    548     1  0.0000000  0.6508444  3
    542    543    546    563     1  299.6901286  -1.5060182  1
    542    543    546    563     1  274.1001175  5.1381528  2
    542    543    546    563     1  342.2101465  3.2676873  3
    541    539    542    543     1  0.0000000  1.0460000  3
    540    539    542    543     1  0.0000000  1.0460000  3
    539    542    543    546     1  0.0000000  1.6038667  3
    603    604    607    608     1  31.7950936  0.7747973  1
    603    604    607    608     1  351.9597510  5.2573257  2
    603    604    607    608     1  357.2476330  1.4847259  3
    601    599    597    603     1  0.0000000  4.9162000  2
    601    599    597    603     1  0.0000000  0.6024960  3
    599    597    603    604     1  0.0000000  1.6038667  3
    597    603    604    605     1  0.0000000  1.0460000  3
    597    603    604    606     1  0.0000000  1.0460000  3
    597    603    604    607     1  333.9801429  -1.1598843  1
    597    603    604    607     1  2.9800013  4.4603365  2
    597    603    604    607     1  29.4700126  0.7878430  3
    596    582    580    599     1  0.0000000  0.0000000  2
    592    591    595    596     1  180.0000771  20.0832000  2
    589    587    586    596     1  180.0000771  12.5520000  2
    589    591    595    596     1  180.0000771  20.0832000  2
    588    587    586    596     1  180.0000771  12.5520000  2
    588    587    589    591     1  180.0000771  5.6484000  2
    587    586    596    595     1  180.0000771  22.8028000  2
    587    589    591    592     1  180.0000771  6.2760000  2
    587    589    591    595     1  180.0000771  6.2760000  2
    586    587    589    591     1  180.0000771  5.6484000  2
    586    596    595    591     1  180.0000771  17.3636000  2
    585    583    582    596     1  180.0000771  7.1128000  2
    585    586    587    588     1  180.0000771  12.5520000  2
    585    586    587    589     1  180.0000771  12.5520000  2
    585    586    596    595     1  180.0000771  22.8028000  2
    583    582    580    599     1  0.0000000  0.0000000  2
    583    582    596    586     1  180.0000771  6.9036000  2
    583    582    596    595     1  180.0000771  6.9036000  2
    583    585    586    587     1  180.0000771  10.6692000  2
    583    585    586    596     1  180.0000771  10.6692000  2
    582    580    599    597     1  0.0000000  0.6508444  3
    582    580    599    601     1  0.0000000  0.6508444  3
    582    583    585    586     1  180.0000771  41.8400000  2
    582    596    586    585     1  180.0000771  22.8028000  2
    582    596    586    587     1  180.0000771  22.8028000  2
    582    596    595    591     1  180.0000771  17.3636000  2
    580    579    577    597     1  180.0000771  0.4184000  2
    580    579    577    597     1  0.0000000  1.6024720  3
    580    582    583    585     1  180.0000771  7.1128000  2
    580    582    596    586     1  180.0000771  6.9036000  2
    580    582    596    595     1  180.0000771  6.9036000  2
    580    599    597    603     1  0.0000000  0.6508444  3
    579    577    597    599     1  0.0000000  0.6508444  3
    579    577    597    603     1  0.0000000  4.9162000  2
    579    577    597    603     1  0.0000000  0.6024960  3
    579    580    582    583     1  287.1401229  -3.8169126  1
    579    580    582    583     1  331.9701422  5.7662424  2
    579    580    582    583     1  27.7600119  -1.7805138  3
    579    580    582    583     1  328.1301407  0.2514082  4
    579    580    582    596     1  0.0000000  0.0000000  2
    579    580    599    597     1  0.0000000  0.6508444  3
    579    580    599    601     1  0.0000000  4.9162000  2
    579    580    599    601     1  0.0000000  0.6024960  3
    577    579    580    582     1  0.0000000  2.7196000  2
    577    579    580    582     1  0.0000000  1.6024720  3
    577    579    580    599     1  180.0000771  0.4184000  2
    577    579    580    599     1  0.0000000  1.6024720  3
    577    597    599    580     1  180.0000771  0.8368000  1
    577    597    599    580     1  180.0000771  1.0460000  2
    577    597    599    580     1  0.0000000  0.7531200  3
    577    597    599    601     1  0.0000000  0.6508444  3
    577    597    603    604     1  0.0000000  1.6038667  3
    574    577    579    580     1  180.0000771  0.4184000  2
    574    577    579    580     1  0.0000000  1.6024720  3
    574    577    597    599     1  180.0000771  0.8368000  1
    574    577    597    599     1  180.0000771  1.0460000  2
    574    577    597    599     1  0.0000000  0.7531200  3
    574    577    597    603     1  0.0000000  0.6508444  3
    573    574    577    579     1  0.0000000  0.6508444  3
    573    574    577    597     1  299.6901286  -1.5060182  1
    573    574    577    597     1  274.1001175  5.1381528  2
    573    574    577    597     1  342.2101465  3.2676873  3
    572    570    573    574     1  0.0000000  1.0460000  3
    571    570    573    574     1  0.0000000  1.0460000  3
    570    573    574    577     1  0.0000000  1.6038667  3
    637    638    641    642     1  31.7950936  0.7747973  1
    637    638    641    642     1  351.9597510  5.2573257  2
    637    638    641    642     1  357.2476330  1.4847259  3
    635    633    631    637     1  0.0000000  4.9162000  2
    635    633    631    637     1  0.0000000  0.6024960  3
    633    631    637    638     1  0.0000000  1.6038667  3
    631    637    638    639     1  0.0000000  1.0460000  3
    631    637    638    640     1  0.0000000  1.0460000  3
    631    637    638    641     1  333.9801429  -1.1598843  1
    631    637    638    641     1  2.9800013  4.4603365  2
    631    637    638    641     1  29.4700126  0.7878430  3
    630    616    614    633     1  0.0000000  0.0000000  2
    626    625    629    630     1  180.0000771  20.0832000  2
    623    621    620    630     1  180.0000771  12.5520000  2
    623    625    629    630     1  180.0000771  20.0832000  2
    622    621    620    630     1  180.0000771  12.5520000  2
    622    621    623    625     1  180.0000771  5.6484000  2
    621    620    630    629     1  180.0000771  22.8028000  2
    621    623    625    626     1  180.0000771  6.2760000  2
    621    623    625    629     1  180.0000771  6.2760000  2
    620    621    623    625     1  180.0000771  5.6484000  2
    620    630    629    625     1  180.0000771  17.3636000  2
    619    617    616    630     1  180.0000771  7.1128000  2
    619    620    621    622     1  180.0000771  12.5520000  2
    619    620    621    623     1  180.0000771  12.5520000  2
    619    620    630    629     1  180.0000771  22.8028000  2
    617    616    614    633     1  0.0000000  0.0000000  2
    617    616    630    620     1  180.0000771  6.9036000  2
    617    616    630    629     1  180.0000771  6.9036000  2
    617    619    620    621     1  180.0000771  10.6692000  2
    617    619    620    630     1  180.0000771  10.6692000  2
    616    614    633    631     1  0.0000000  0.6508444  3
    616    614    633    635     1  0.0000000  0.6508444  3
    616    617    619    620     1  180.0000771  41.8400000  2
    616    630    620    619     1  180.0000771  22.8028000  2
    616    630    620    621     1  180.0000771  22.8028000  2
    616    630    629    625     1  180.0000771  17.3636000  2
    614    613    611    631     1  180.0000771  0.4184000  2
    614    613    611    631     1  0.0000000  1.6024720  3
    614    616    617    619     1  180.0000771  7.1128000  2
    614    616    630    620     1  180.0000771  6.9036000  2
    614    616    630    629     1  180.0000771  6.9036000  2
    614    633    631    637     1  0.0000000  0.6508444  3
    613    611    631    633     1  0.0000000  0.6508444  3
    613    611    631    637     1  0.0000000  4.9162000  2
    613    611    631    637     1  0.0000000  0.6024960  3
    613    614    616    617     1  287.1401229  -3.8169126  1
    613    614    616    617     1  331.9701422  5.7662424  2
    613    614    616    617     1  27.7600119  -1.7805138  3
    613    614    616    617     1  328.1301407  0.2514082  4
    613    614    616    630     1  0.0000000  0.0000000  2
    613    614    633    631     1  0.0000000  0.6508444  3
    613    614    633    635     1  0.0000000  4.9162000  2
    613    614    633    635     1  0.0000000  0.6024960  3
    611    613    614    616     1  0.0000000  2.7196000  2
    611    613    614    616     1  0.0000000  1.6024720  3
    611    613    614    633     1  180.0000771  0.4184000  2
    611    613    614    633     1  0.0000000  1.6024720  3
    611    631    633    614     1  180.0000771  0.8368000  1
    611    631    633    614     1  180.0000771  1.0460000  2
    611    631    633    614     1  0.0000000  0.7531200  3
    611    631    633    635     1  0.0000000  0.6508444  3
    611    631    637    638     1  0.0000000  1.6038667  3
    608    611    613    614     1  180.0000771  0.4184000  2
    608    611    613    614     1  0.0000000  1.6024720  3
    608    611    631    633     1  180.0000771  0.8368000  1
    608    611    631    633     1  180.0000771  1.0460000  2
    608    611    631    633     1  0.0000000  0.7531200  3
    608    611    631    637     1  0.0000000  0.6508444  3
    607    608    611    613     1  0.0000000  0.6508444  3
    607    608    611    631     1  299.6901286  -1.5060182  1
    607    608    611    631     1  274.1001175  5.1381528  2
    607    608    611    631     1  342.2101465  3.2676873  3
    606    604    607    608     1  0.0000000  1.0460000  3
    605    604    607    608     1  0.0000000  1.0460000  3
    604    607    608    611     1  0.0000000  1.6038667  3
    667    668    671    672     1  31.7950936  0.7747973  1
    667    668    671    672     1  351.9597510  5.2573257  2
    667    668    671    672     1  357.2476330  1.4847259  3
    665    663    661    667     1  0.0000000  4.9162000  2
    665    663    661    667     1  0.0000000  0.6024960  3
    663    661    667    668     1  0.0000000  1.6038667  3
    661    667    668    669     1  0.0000000  1.0460000  3
    661    667    668    670     1  0.0000000  1.0460000  3
    661    667    668    671     1  333.9801429  -1.1598843  1
    661    667    668    671     1  2.9800013  4.4603365  2
    661    667    668    671     1  29.4700126  0.7878430  3
    659    650    648    663     1  0.0000000  0.0000000  2
    656    655    657    659     1  180.0000771  5.6484000  2
    655    657    659    660     1  180.0000771  5.6484000  2
    653    651    650    659     1  180.0000771  7.7404000  2
    653    655    657    659     1  180.0000771  5.6484000  2
    651    650    648    663     1  0.0000000  0.0000000  2
    651    650    659    657     1  180.0000771  6.0668000  2
    651    650    659    660     1  180.0000771  6.0668000  2
    651    653    655    656     1  180.0000771  9.1002000  2
    651    653    655    656     1  0.0000000  1.2552000  3
    651    653    655    657     1  180.0000771  9.1002000  2
    650    648    663    661     1  0.0000000  0.6508444  3
    650    648    663    665     1  0.0000000  0.6508444  3
    650    651    653    655     1  180.0000771  27.8236000  2
    650    659    657    655     1  180.0000771  5.6484000  2
    648    647    645    661     1  180.0000771  0.4184000  2
    648    647    645    661     1  0.0000000  1.6024720  3
    648    650    651    653     1  180.0000771  7.7404000  2
    648    650    659    657     1  180.0000771  6.0668000  2
    648    650    659    660     1  180.0000771  6.0668000  2
    648    663    661    667     1  0.0000000  0.6508444  3
    647    645    661    663     1  0.0000000  0.6508444  3
    647    645    661    667     1  0.0000000  4.9162000  2
    647    645    661    667     1  0.0000000  0.6024960  3
    647    648    650    651     1  147.4600633  2.5402277  1
    647    648    650    651     1  346.4201487  5.4288069  2
    647    648    650    651     1  38.1300163  -2.0913808  3
    647    648    650    651     1  348.0001491  -0.6909207  4
    647    648    650    659     1  0.0000000  0.0000000  2
    647    648    663    661     1  0.0000000  0.6508444  3
    647    648    663    665     1  0.0000000  4.9162000  2
    647    648    663    665     1  0.0000000  0.6024960  3
    645    647    648    650     1  0.0000000  2.7196000  2
    645    647    648    650     1  0.0000000  1.6024720  3
    645    647    648    663     1  180.0000771  0.4184000  2
    645    647    648    663     1  0.0000000  1.6024720  3
    645    661    663    648     1  180.0000771  0.8368000  1
    645    661    663    648     1  180.0000771  1.0460000  2
    645    661    663    648     1  0.0000000  0.7531200  3
    645    661    663    665     1  0.0000000  0.6508444  3
    645    661    667    668     1  0.0000000  1.6038667  3
    642    645    647    648     1  180.0000771  0.4184000  2
    642    645    647    648     1  0.0000000  1.6024720  3
    642    645    661    663     1  180.0000771  0.8368000  1
    642    645    661    663     1  180.0000771  1.0460000  2
    642    645    661    663     1  0.0000000  0.7531200  3
    642    645    661    667     1  0.0000000  0.6508444  3
    641    642    645    647     1  0.0000000  0.6508444  3
    641    642    645    661     1  299.6901286  -1.5060182  1
    641    642    645    661     1  274.1001175  5.1381528  2
    641    642    645    661     1  342.2101465  3.2676873  3
    640    638    641    642     1  0.0000000  1.0460000  3
    639    638    641    642     1  0.0000000  1.0460000  3
    638    641    642    645     1  0.0000000  1.6038667  3
    701    702    705    706     1  31.7950936  0.7747973  1
    701    702    705    706     1  351.9597510  5.2573257  2
    701    702    705    706     1  357.2476330  1.4847259  3
    699    697    695    701     1  0.0000000  4.9162000  2
    699    697    695    701     1  0.0000000  0.6024960  3
    697    695    701    702     1  0.0000000  1.6038667  3
    695    701    702    703     1  0.0000000  1.0460000  3
    695    701    702    704     1  0.0000000  1.0460000  3
    695    701    702    705     1  333.9801429  -1.1598843  1
    695    701    702    705     1  2.9800013  4.4603365  2
    695    701    702    705     1  29.4700126  0.7878430  3
    694    680    678    697     1  0.0000000  0.0000000  2
    690    689    693    694     1  180.0000771  20.0832000  2
    687    685    684    694     1  180.0000771  12.5520000  2
    687    689    693    694     1  180.0000771  20.0832000  2
    686    685    684    694     1  180.0000771  12.5520000  2
    686    685    687    689     1  180.0000771  5.6484000  2
    685    684    694    693     1  180.0000771  22.8028000  2
    685    687    689    690     1  180.0000771  6.2760000  2
    685    687    689    693     1  180.0000771  6.2760000  2
    684    685    687    689     1  180.0000771  5.6484000  2
    684    694    693    689     1  180.0000771  17.3636000  2
    683    681    680    694     1  180.0000771  7.1128000  2
    683    684    685    686     1  180.0000771  12.5520000  2
    683    684    685    687     1  180.0000771  12.5520000  2
    683    684    694    693     1  180.0000771  22.8028000  2
    681    680    678    697     1  0.0000000  0.0000000  2
    681    680    694    684     1  180.0000771  6.9036000  2
    681    680    694    693     1  180.0000771  6.9036000  2
    681    683    684    685     1  180.0000771  10.6692000  2
    681    683    684    694     1  180.0000771  10.6692000  2
    680    678    697    695     1  0.0000000  0.6508444  3
    680    678    697    699     1  0.0000000  0.6508444  3
    680    681    683    684     1  180.0000771  41.8400000  2
    680    694    684    683     1  180.0000771  22.8028000  2
    680    694    684    685     1  180.0000771  22.8028000  2
    680    694    693    689     1  180.0000771  17.3636000  2
    678    677    675    695     1  180.0000771  0.4184000  2
    678    677    675    695     1  0.0000000  1.6024720  3
    678    680    681    683     1  180.0000771  7.1128000  2
    678    680    694    684     1  180.0000771  6.9036000  2
    678    680    694    693     1  180.0000771  6.9036000  2
    678    697    695    701     1  0.0000000  0.6508444  3
    677    675    695    697     1  0.0000000  0.6508444  3
    677    675    695    701     1  0.0000000  4.9162000  2
    677    675    695    701     1  0.0000000  0.6024960  3
    677    678    680    681     1  287.1401229  -3.8169126  1
    677    678    680    681     1  331.9701422  5.7662424  2
    677    678    680    681     1  27.7600119  -1.7805138  3
    677    678    680    681     1  328.1301407  0.2514082  4
    677    678    680    694     1  0.0000000  0.0000000  2
    677    678    697    695     1  0.0000000  0.6508444  3
    677    678    697    699     1  0.0000000  4.9162000  2
    677    678    697    699     1  0.0000000  0.6024960  3
    675    677    678    680     1  0.0000000  2.7196000  2
    675    677    678    680     1  0.0000000  1.6024720  3
    675    677    678    697     1  180.0000771  0.4184000  2
    675    677    678    697     1  0.0000000  1.6024720  3
    675    695    697    678     1  180.0000771  0.8368000  1
    675    695    697    678     1  180.0000771  1.0460000  2
    675    695    697    678     1  0.0000000  0.7531200  3
    675    695    697    699     1  0.0000000  0.6508444  3
    675    695    701    702     1  0.0000000  1.6038667  3
    672    675    677    678     1  180.0000771  0.4184000  2
    672    675    677    678     1  0.0000000  1.6024720  3
    672    675    695    697     1  180.0000771  0.8368000  1
    672    675    695    697     1  180.0000771  1.0460000  2
    672    675    695    697     1  0.0000000  0.7531200  3
    672    675    695    701     1  0.0000000  0.6508444  3
    671    672    675    677     1  0.0000000  0.6508444  3
    671    672    675    695     1  299.6901286  -1.5060182  1
    671    672    675    695     1  274.1001175  5.1381528  2
    671    672    675    695     1  342.2101465  3.2676873  3
    670    668    671    672     1  0.0000000  1.0460000  3
    669    668    671    672     1  0.0000000  1.0460000  3
    668    671    672    675     1  0.0000000  1.6038667  3
    731    732    735    736     1  31.7950936  0.7747973  1
    731    732    735    736     1  351.9597510  5.2573257  2
    731    732    735    736     1  357.2476330  1.4847259  3
    729    727    725    731     1  0.0000000  4.9162000  2
    729    727    725    731     1  0.0000000  0.6024960  3
    727    725    731    732     1  0.0000000  1.6038667  3
    725    731    732    733     1  0.0000000  1.0460000  3
    725    731    732    734     1  0.0000000  1.0460000  3
    725    731    732    735     1  333.9801429  -1.1598843  1
    725    731    732    735     1  2.9800013  4.4603365  2
    725    731    732    735     1  29.4700126  0.7878430  3
    723    714    712    727     1  0.0000000  0.0000000  2
    720    719    721    723     1  180.0000771  5.6484000  2
    719    721    723    724     1  180.0000771  5.6484000  2
    717    715    714    723     1  180.0000771  7.7404000  2
    717    719    721    723     1  180.0000771  5.6484000  2
    715    714    712    727     1  0.0000000  0.0000000  2
    715    714    723    721     1  180.0000771  6.0668000  2
    715    714    723    724     1  180.0000771  6.0668000  2
    715    717    719    720     1  180.0000771  9.1002000  2
    715    717    719    720     1  0.0000000  1.2552000  3
    715    717    719    721     1  180.0000771  9.1002000  2
    714    712    727    725     1  0.0000000  0.6508444  3
    714    712    727    729     1  0.0000000  0.6508444  3
    714    715    717    719     1  180.0000771  27.8236000  2
    714    723    721    719     1  180.0000771  5.6484000  2
    712    711    709    725     1  180.0000771  0.4184000  2
    712    711    709    725     1  0.0000000  1.6024720  3
    712    714    715    717     1  180.0000771  7.7404000  2
    712    714    723    721     1  180.0000771  6.0668000  2
    712    714    723    724     1  180.0000771  6.0668000  2
    712    727    725    731     1  0.0000000  0.6508444  3
    711    709    725    727     1  0.0000000  0.6508444  3
    711    709    725    731     1  0.0000000  4.9162000  2
    711    709    725    731     1  0.0000000  0.6024960  3
    711    712    714    715     1  147.4600633  2.5402277  1
    711    712    714    715     1  346.4201487  5.4288069  2
    711    712    714    715     1  38.1300163  -2.0913808  3
    711    712    714    715     1  348.0001491  -0.6909207  4
    711    712    714    723     1  0.0000000  0.0000000  2
    711    712    727    725     1  0.0000000  0.6508444  3
    711    712    727    729     1  0.0000000  4.9162000  2
    711    712    727    729     1  0.0000000  0.6024960  3
    709    711    712    714     1  0.0000000  2.7196000  2
    709    711    712    714     1  0.0000000  1.6024720  3
    709    711    712    727     1  180.0000771  0.4184000  2
    709    711    712    727     1  0.0000000  1.6024720  3
    709    725    727    712     1  180.0000771  0.8368000  1
    709    725    727    712     1  180.0000771  1.0460000  2
    709    725    727    712     1  0.0000000  0.7531200  3
    709    725    727    729     1  0.0000000  0.6508444  3
    709    725    731    732     1  0.0000000  1.6038667  3
    706    709    711    712     1  180.0000771  0.4184000  2
    706    709    711    712     1  0.0000000  1.6024720  3
    706    709    725    727     1  180.0000771  0.8368000  1
    706    709    725    727     1  180.0000771  1.0460000  2
    706    709    725    727     1  0.0000000  0.7531200  3
    706    709    725    731     1  0.0000000  0.6508444  3
    705    706    709    711     1  0.0000000  0.6508444  3
    705    706    709    725     1  299.6901286  -1.5060182  1
    705    706    709    725     1  274.1001175  5.1381528  2
    705    706    709    725     1  342.2101465  3.2676873  3
    704    702    705    706     1  0.0000000  1.0460000  3
    703    702    705    706     1  0.0000000  1.0460000  3
    702    705    706    709     1  0.0000000  1.6038667  3
    764    765    768    769     1  31.7950936  0.7747973  1
    764    765    768    769     1  351.9597510  5.2573257  2
    764    765    768    769     1  357.2476330  1.4847259  3
    762    760    758    764     1  0.0000000  4.9162000  2
    762    760    758    764     1  0.0000000  0.6024960  3
    760    758    764    765     1  0.0000000  1.6038667  3
    758    764    765    766     1  0.0000000  1.0460000  3
    758    764    765    767     1  0.0000000  1.0460000  3
    758    764    765    768     1  333.9801429  -1.1598843  1
    758    764    765    768     1  2.9800013  4.4603365  2
    758    764    765    768     1  29.4700126  0.7878430  3
    757    744    742    760     1  0.0000000  0.0000000  2
    753    749    748    757     1  180.0000771  14.6440000  2
    753    754    756    757     1  180.0000771  28.4512000  2
    750    749    748    757     1  180.0000771  14.6440000  2
    750    749    753    754     1  180.0000771  20.0832000  2
    749    748    757    756     1  180.0000771  22.8028000  2
    749    753    754    756     1  180.0000771  28.4512000  2
    748    749    753    754     1  180.0000771  20.0832000  2
    748    757    756    754     1  180.0000771  17.3636000  2
    747    745    744    757     1  180.0000771  7.1128000  2
    747    748    749    750     1  180.0000771  14.6440000  2
    747    748    749    753     1  180.0000771  14.6440000  2
    747    748    757    756     1  180.0000771  22.8028000  2
    745    744    742    760     1  0.0000000  0.0000000  2
    745    744    757    748     1  180.0000771  6.9036000  2
    745    744    757    756     1  180.0000771  6.9036000  2
    745    747    748    749     1  180.0000771  10.6692000  2
    745    747    748    757     1  180.0000771  10.6692000  2
    744    742    760    758     1  0.0000000  0.6508444  3
    744    742    760    762     1  0.0000000  0.6508444  3
    744    745    747    748     1  180.0000771  41.8400000  2
    744    757    748    747     1  180.0000771  22.8028000  2
    744    757    748    749     1  180.0000771  22.8028000  2
    744    757    756    754     1  180.0000771  17.3636000  2
    742    741    739    758     1  180.0000771  0.4184000  2
    742    741    739    758     1  0.0000000  1.6024720  3
    742    744    745    747     1  180.0000771  7.1128000  2
    742    744    757    748     1  180.0000771  6.9036000  2
    742    744    757    756     1  180.0000771  6.9036000  2
    742    760    758    764     1  0.0000000  0.6508444  3
    741    739    758    760     1  0.0000000  0.6508444  3
    741    739    758    764     1  0.0000000  4.9162000  2
    741    739    758    764     1  0.0000000  0.6024960  3
    741    742    744    745     1  98.2900423  3.1435856  1
    741    742    744    745     1  328.5601409  4.5857268  2
    741    742    744    745     1  50.5200217  -1.7297325  3
    741    742    744    745     1  40.9900176  0.2709140  4
    741    742    744    757     1  0.0000000  0.0000000  2
    741    742    760    758     1  0.0000000  0.6508444  3
    741    742    760    762     1  0.0000000  4.9162000  2
    741    742    760    762     1  0.0000000  0.6024960  3
    739    741    742    744     1  0.0000000  2.7196000  2
    739    741    742    744     1  0.0000000  1.6024720  3
    739    741    742    760     1  180.0000771  0.4184000  2
    739    741    742    760     1  0.0000000  1.6024720  3
    739    758    760    742     1  180.0000771  0.8368000  1
    739    758    760    742     1  180.0000771  1.0460000  2
    739    758    760    742     1  0.0000000  0.7531200  3
    739    758    760    762     1  0.0000000  0.6508444  3
    739    758    764    765     1  0.0000000  1.6038667  3
    736    739    741    742     1  180.0000771  0.4184000  2
    736    739    741    742     1  0.0000000  1.6024720  3
    736    739    758    760     1  180.0000771  0.8368000  1
    736    739    758    760     1  180.0000771  1.0460000  2
    736    739    758    760     1  0.0000000  0.7531200  3
    736    739    758    764     1  0.0000000  0.6508444  3
    735    736    739    741     1  0.0000000  0.6508444  3
    735    736    739    758     1  299.6901286  -1.5060182  1
    735    736    739    758     1  274.1001175  5.1381528  2
    735    736    739    758     1  342.2101465  3.2676873  3
    734    732    735    736     1  0.0000000  1.0460000  3
    733    732    735    736     1  0.0000000  1.0460000  3
    732    735    736    739     1  0.0000000  1.6038667  3
    797    798    801    802     1  31.7950936  0.7747973  1
    797    798    801    802     1  351.9597510  5.2573257  2
    797    798    801    802     1  357.2476330  1.4847259  3
    795    793    791    797     1  0.0000000  4.9162000  2
    795    793    791    797     1  0.0000000  0.6024960  3
    793    791    797    798     1  0.0000000  1.6038667  3
    791    797    798    799     1  0.0000000  1.0460000  3
    791    797    798    800     1  0.0000000  1.0460000  3
    791    797    798    801     1  333.9801429  -1.1598843  1
    791    797    798    801     1  2.9800013  4.4603365  2
    791    797    798    801     1  29.4700126  0.7878430  3
    790    777    775    793     1  0.0000000  0.0000000  2
    786    782    781    790     1  180.0000771  14.6440000  2
    786    787    789    790     1  180.0000771  28.4512000  2
    783    782    781    790     1  180.0000771  14.6440000  2
    783    782    786    787     1  180.0000771  20.0832000  2
    782    781    790    789     1  180.0000771  22.8028000  2
    782    786    787    789     1  180.0000771  28.4512000  2
    781    782    786    787     1  180.0000771  20.0832000  2
    781    790    789    787     1  180.0000771  17.3636000  2
    780    778    777    790     1  180.0000771  7.1128000  2
    780    781    782    783     1  180.0000771  14.6440000  2
    780    781    782    786     1  180.0000771  14.6440000  2
    780    781    790    789     1  180.0000771  22.8028000  2
    778    777    775    793     1  0.0000000  0.0000000  2
    778    777    790    781     1  180.0000771  6.9036000  2
    778    777    790    789     1  180.0000771  6.9036000  2
    778    780    781    782     1  180.0000771  10.6692000  2
    778    780    781    790     1  180.0000771  10.6692000  2
    777    775    793    791     1  0.0000000  0.6508444  3
    777    775    793    795     1  0.0000000  0.6508444  3
    777    778    780    781     1  180.0000771  41.8400000  2
    777    790    781    780     1  180.0000771  22.8028000  2
    777    790    781    782     1  180.0000771  22.8028000  2
    777    790    789    787     1  180.0000771  17.3636000  2
    775    774    772    791     1  180.0000771  0.4184000  2
    775    774    772    791     1  0.0000000  1.6024720  3
    775    777    778    780     1  180.0000771  7.1128000  2
    775    777    790    781     1  180.0000771  6.9036000  2
    775    777    790    789     1  180.0000771  6.9036000  2
    775    793    791    797     1  0.0000000  0.6508444  3
    774    772    791    793     1  0.0000000  0.6508444  3
    774    772    791    797     1  0.0000000  4.9162000  2
    774    772    791    797     1  0.0000000  0.6024960  3
    774    775    777    778     1  98.2900423  3.1435856  1
    774    775    777    778     1  328.5601409  4.5857268  2
    774    775    777    778     1  50.5200217  -1.7297325  3
    774    775    777    778     1  40.9900176  0.2709140  4
    774    775    777    790     1  0.0000000  0.0000000  2
    774    775    793    791     1  0.0000000  0.6508444  3
    774    775    793    795     1  0.0000000  4.9162000  2
    774    775    793    795     1  0.0000000  0.6024960  3
    772    774    775    777     1  0.0000000  2.7196000  2
    772    774    775    777     1  0.0000000  1.6024720  3
    772    774    775    793     1  180.0000771  0.4184000  2
    772    774    775    793     1  0.0000000  1.6024720  3
    772    791    793    775     1  180.0000771  0.8368000  1
    772    791    793    775     1  180.0000771  1.0460000  2
    772    791    793    775     1  0.0000000  0.7531200  3
    772    791    793    795     1  0.0000000  0.6508444  3
    772    791    797    798     1  0.0000000  1.6038667  3
    769    772    774    775     1  180.0000771  0.4184000  2
    769    772    774    775     1  0.0000000  1.6024720  3
    769    772    791    793     1  180.0000771  0.8368000  1
    769    772    791    793     1  180.0000771  1.0460000  2
    769    772    791    793     1  0.0000000  0.7531200  3
    769    772    791    797     1  0.0000000  0.6508444  3
    768    769    772    774     1  0.0000000  0.6508444  3
    768    769    772    791     1  299.6901286  -1.5060182  1
    768    769    772    791     1  274.1001175  5.1381528  2
    768    769    772    791     1  342.2101465  3.2676873  3
    767    765    768    769     1  0.0000000  1.0460000  3
    766    765    768    769     1  0.0000000  1.0460000  3
    765    768    769    772     1  0.0000000  1.6038667  3
    831    832    835    836     1  31.7950936  0.7747973  1
    831    832    835    836     1  351.9597510  5.2573257  2
    831    832    835    836     1  357.2476330  1.4847259  3
    829    827    825    831     1  0.0000000  4.9162000  2
    829    827    825    831     1  0.0000000  0.6024960  3
    827    825    831    832     1  0.0000000  1.6038667  3
    825    831    832    833     1  0.0000000  1.0460000  3
    825    831    832    834     1  0.0000000  1.0460000  3
    825    831    832    835     1  333.9801429  -1.1598843  1
    825    831    832    835     1  2.9800013  4.4603365  2
    825    831    832    835     1  29.4700126  0.7878430  3
    824    810    808    827     1  0.0000000  0.0000000  2
    820    819    823    824     1  180.0000771  20.0832000  2
    817    815    814    824     1  180.0000771  12.5520000  2
    817    819    823    824     1  180.0000771  20.0832000  2
    816    815    814    824     1  180.0000771  12.5520000  2
    816    815    817    819     1  180.0000771  5.6484000  2
    815    814    824    823     1  180.0000771  22.8028000  2
    815    817    819    820     1  180.0000771  6.2760000  2
    815    817    819    823     1  180.0000771  6.2760000  2
    814    815    817    819     1  180.0000771  5.6484000  2
    814    824    823    819     1  180.0000771  17.3636000  2
    813    811    810    824     1  180.0000771  7.1128000  2
    813    814    815    816     1  180.0000771  12.5520000  2
    813    814    815    817     1  180.0000771  12.5520000  2
    813    814    824    823     1  180.0000771  22.8028000  2
    811    810    808    827     1  0.0000000  0.0000000  2
    811    810    824    814     1  180.0000771  6.9036000  2
    811    810    824    823     1  180.0000771  6.9036000  2
    811    813    814    815     1  180.0000771  10.6692000  2
    811    813    814    824     1  180.0000771  10.6692000  2
    810    808    827    825     1  0.0000000  0.6508444  3
    810    808    827    829     1  0.0000000  0.6508444  3
    810    811    813    814     1  180.0000771  41.8400000  2
    810    824    814    813     1  180.0000771  22.8028000  2
    810    824    814    815     1  180.0000771  22.8028000  2
    810    824    823    819     1  180.0000771  17.3636000  2
    808    807    805    825     1  180.0000771  0.4184000  2
    808    807    805    825     1  0.0000000  1.6024720  3
    808    810    811    813     1  180.0000771  7.1128000  2
    808    810    824    814     1  180.0000771  6.9036000  2
    808    810    824    823     1  180.0000771  6.9036000  2
    808    827    825    831     1  0.0000000  0.6508444  3
    807    805    825    827     1  0.0000000  0.6508444  3
    807    805    825    831     1  0.0000000  4.9162000  2
    807    805    825    831     1  0.0000000  0.6024960  3
    807    808    810    811     1  287.1401229  -3.8169126  1
    807    808    810    811     1  331.9701422  5.7662424  2
    807    808    810    811     1  27.7600119  -1.7805138  3
    807    808    810    811     1  328.1301407  0.2514082  4
    807    808    810    824     1  0.0000000  0.0000000  2
    807    808    827    825     1  0.0000000  0.6508444  3
    807    808    827    829     1  0.0000000  4.9162000  2
    807    808    827    829     1  0.0000000  0.6024960  3
    805    807    808    810     1  0.0000000  2.7196000  2
    805    807    808    810     1  0.0000000  1.6024720  3
    805    807    808    827     1  180.0000771  0.4184000  2
    805    807    808    827     1  0.0000000  1.6024720  3
    805    825    827    808     1  180.0000771  0.8368000  1
    805    825    827    808     1  180.0000771  1.0460000  2
    805    825    827    808     1  0.0000000  0.7531200  3
    805    825    827    829     1  0.0000000  0.6508444  3
    805    825    831    832     1  0.0000000  1.6038667  3
    802    805    807    808     1  180.0000771  0.4184000  2
    802    805    807    808     1  0.0000000  1.6024720  3
    802    805    825    827     1  180.0000771  0.8368000  1
    802    805    825    827     1  180.0000771  1.0460000  2
    802    805    825    827     1  0.0000000  0.7531200  3
    802    805    825    831     1  0.0000000  0.6508444  3
    801    802    805    807     1  0.0000000  0.6508444  3
    801    802    805    825     1  299.6901286  -1.5060182  1
    801    802    805    825     1  274.1001175  5.1381528  2
    801    802    805    825     1  342.2101465  3.2676873  3
    800    798    801    802     1  0.0000000  1.0460000  3
    799    798    801    802     1  0.0000000  1.0460000  3
    798    801    802    805     1  0.0000000  1.6038667  3
    861    862    865    866     1  31.7950936  0.7747973  1
    861    862    865    866     1  351.9597510  5.2573257  2
    861    862    865    866     1  357.2476330  1.4847259  3
    859    857    855    861     1  0.0000000  4.9162000  2
    859    857    855    861     1  0.0000000  0.6024960  3
    857    855    861    862     1  0.0000000  1.6038667  3
    855    861    862    863     1  0.0000000  1.0460000  3
    855    861    862    864     1  0.0000000  1.0460000  3
    855    861    862    865     1  333.9801429  -1.1598843  1
    855    861    862    865     1  2.9800013  4.4603365  2
    855    861    862    865     1  29.4700126  0.7878430  3
    853    844    842    857     1  0.0000000  0.0000000  2
    850    849    851    853     1  180.0000771  5.6484000  2
    849    851    853    854     1  180.0000771  5.6484000  2
    847    845    844    853     1  180.0000771  7.7404000  2
    847    849    851    853     1  180.0000771  5.6484000  2
    845    844    842    857     1  0.0000000  0.0000000  2
    845    844    853    851     1  180.0000771  6.0668000  2
    845    844    853    854     1  180.0000771  6.0668000  2
    845    847    849    850     1  180.0000771  9.1002000  2
    845    847    849    850     1  0.0000000  1.2552000  3
    845    847    849    851     1  180.0000771  9.1002000  2
    844    842    857    855     1  0.0000000  0.6508444  3
    844    842    857    859     1  0.0000000  0.6508444  3
    844    845    847    849     1  180.0000771  27.8236000  2
    844    853    851    849     1  180.0000771  5.6484000  2
    842    841    839    855     1  180.0000771  0.4184000  2
    842    841    839    855     1  0.0000000  1.6024720  3
    842    844    845    847     1  180.0000771  7.7404000  2
    842    844    853    851     1  180.0000771  6.0668000  2
    842    844    853    854     1  180.0000771  6.0668000  2
    842    857    855    861     1  0.0000000  0.6508444  3
    841    839    855    857     1  0.0000000  0.6508444  3
    841    839    855    861     1  0.0000000  4.9162000  2
    841    839    855    861     1  0.0000000  0.6024960  3
    841    842    844    845     1  147.4600633  2.5402277  1
    841    842    844    845     1  346.4201487  5.4288069  2
    841    842    844    845     1  38.1300163  -2.0913808  3
    841    842    844    845     1  348.0001491  -0.6909207  4
    841    842    844    853     1  0.0000000  0.0000000  2
    841    842    857    855     1  0.0000000  0.6508444  3
    841    842    857    859     1  0.0000000  4.9162000  2
    841    842    857    859     1  0.0000000  0.6024960  3
    839    841    842    844     1  0.0000000  2.7196000  2
    839    841    842    844     1  0.0000000  1.6024720  3
    839    841    842    857     1  180.0000771  0.4184000  2
    839    841    842    857     1  0.0000000  1.6024720  3
    839    855    857    842     1  180.0000771  0.8368000  1
    839    855    857    842     1  180.0000771  1.0460000  2
    839    855    857    842     1  0.0000000  0.7531200  3
    839    855    857    859     1  0.0000000  0.6508444  3
    839    855    861    862     1  0.0000000  1.6038667  3
    836    839    841    842     1  180.0000771  0.4184000  2
    836    839    841    842     1  0.0000000  1.6024720  3
    836    839    855    857     1  180.0000771  0.8368000  1
    836    839    855    857     1  180.0000771  1.0460000  2
    836    839    855    857     1  0.0000000  0.7531200  3
    836    839    855    861     1  0.0000000  0.6508444  3
    835    836    839    841     1  0.0000000  0.6508444  3
    835    836    839    855     1  299.6901286  -1.5060182  1
    835    836    839    855     1  274.1001175  5.1381528  2
    835    836    839    855     1  342.2101465  3.2676873  3
    834    832    835    836     1  0.0000000  1.0460000  3
    833    832    835    836     1  0.0000000  1.0460000  3
    832    835    836    839     1  0.0000000  1.6038667  3
    895    896    899    900     1  31.7950936  0.7747973  1
    895    896    899    900     1  351.9597510  5.2573257  2
    895    896    899    900     1  357.2476330  1.4847259  3
    893    891    889    895     1  0.0000000  4.9162000  2
    893    891    889    895     1  0.0000000  0.6024960  3
    891    889    895    896     1  0.0000000  1.6038667  3
    889    895    896    897     1  0.0000000  1.0460000  3
    889    895    896    898     1  0.0000000  1.0460000  3
    889    895    896    899     1  333.9801429  -1.1598843  1
    889    895    896    899     1  2.9800013  4.4603365  2
    889    895    896    899     1  29.4700126  0.7878430  3
    888    874    872    891     1  0.0000000  0.0000000  2
    884    883    887    888     1  180.0000771  20.0832000  2
    881    879    878    888     1  180.0000771  12.5520000  2
    881    883    887    888     1  180.0000771  20.0832000  2
    880    879    878    888     1  180.0000771  12.5520000  2
    880    879    881    883     1  180.0000771  5.6484000  2
    879    878    888    887     1  180.0000771  22.8028000  2
    879    881    883    884     1  180.0000771  6.2760000  2
    879    881    883    887     1  180.0000771  6.2760000  2
    878    879    881    883     1  180.0000771  5.6484000  2
    878    888    887    883     1  180.0000771  17.3636000  2
    877    875    874    888     1  180.0000771  7.1128000  2
    877    878    879    880     1  180.0000771  12.5520000  2
    877    878    879    881     1  180.0000771  12.5520000  2
    877    878    888    887     1  180.0000771  22.8028000  2
    875    874    872    891     1  0.0000000  0.0000000  2
    875    874    888    878     1  180.0000771  6.9036000  2
    875    874    888    887     1  180.0000771  6.9036000  2
    875    877    878    879     1  180.0000771  10.6692000  2
    875    877    878    888     1  180.0000771  10.6692000  2
    874    872    891    889     1  0.0000000  0.6508444  3
    874    872    891    893     1  0.0000000  0.6508444  3
    874    875    877    878     1  180.0000771  41.8400000  2
    874    888    878    877     1  180.0000771  22.8028000  2
    874    888    878    879     1  180.0000771  22.8028000  2
    874    888    887    883     1  180.0000771  17.3636000  2
    872    871    869    889     1  180.0000771  0.4184000  2
    872    871    869    889     1  0.0000000  1.6024720  3
    872    874    875    877     1  180.0000771  7.1128000  2
    872    874    888    878     1  180.0000771  6.9036000  2
    872    874    888    887     1  180.0000771  6.9036000  2
    872    891    889    895     1  0.0000000  0.6508444  3
    871    869    889    891     1  0.0000000  0.6508444  3
    871    869    889    895     1  0.0000000  4.9162000  2
    871    869    889    895     1  0.0000000  0.6024960  3
    871    872    874    875     1  287.1401229  -3.8169126  1
    871    872    874    875     1  331.9701422  5.7662424  2
    871    872    874    875     1  27.7600119  -1.7805138  3
    871    872    874    875     1  328.1301407  0.2514082  4
    871    872    874    888     1  0.0000000  0.0000000  2
    871    872    891    889     1  0.0000000  0.6508444  3
    871    872    891    893     1  0.0000000  4.9162000  2
    871    872    891    893     1  0.0000000  0.6024960  3
    869    871    872    874     1  0.0000000  2.7196000  2
    869    871    872    874     1  0.0000000  1.6024720  3
    869    871    872    891     1  180.0000771  0.4184000  2
    869    871    872    891     1  0.0000000  1.6024720  3
    869    889    891    872     1  180.0000771  0.8368000  1
    869    889    891    872     1  180.0000771  1.0460000  2
    869    889    891    872     1  0.0000000  0.7531200  3
    869    889    891    893     1  0.0000000  0.6508444  3
    869    889    895    896     1  0.0000000  1.6038667  3
    866    869    871    872     1  180.0000771  0.4184000  2
    866    869    871    872     1  0.0000000  1.6024720  3
    866    869    889    891     1  180.0000771  0.8368000  1
    866    869    889    891     1  180.0000771  1.0460000  2
    866    869    889    891     1  0.0000000  0.7531200  3
    866    869    889    895     1  0.0000000  0.6508444  3
    865    866    869    871     1  0.0000000  0.6508444  3
    865    866    869    889     1  299.6901286  -1.5060182  1
    865    866    869    889     1  274.1001175  5.1381528  2
    865    866    869    889     1  342.2101465  3.2676873  3
    864    862    865    866     1  0.0000000  1.0460000  3
    863    862    865    866     1  0.0000000  1.0460000  3
    862    865    866    869     1  0.0000000  1.6038667  3
    926    927    930    931     1  31.7950936  0.7747973  1
    926    927    930    931     1  351.9597510  5.2573257  2
    926    927    930    931     1  357.2476330  1.4847259  3
    924    922    920    926     1  0.0000000  4.9162000  2
    924    922    920    926     1  0.0000000  0.6024960  3
    922    920    926    927     1  0.0000000  1.6038667  3
    920    926    927    928     1  0.0000000  1.0460000  3
    920    926    927    929     1  0.0000000  1.0460000  3
    920    926    927    930     1  333.9801429  -1.1598843  1
    920    926    927    930     1  2.9800013  4.4603365  2
    920    926    927    930     1  29.4700126  0.7878430  3
    918    908    906    922     1  0.0000000  0.0000000  2
    914    913    917    918     1  180.0000771  20.0832000  2
    913    917    918    919     1  180.0000771  16.7360000  2
    911    909    908    918     1  180.0000771  7.7404000  2
    911    913    917    918     1  180.0000771  20.0832000  2
    909    908    906    922     1  0.0000000  0.0000000  2
    909    908    918    917     1  180.0000771  6.0668000  2
    909    908    918    919     1  180.0000771  6.0668000  2
    909    911    913    914     1  180.0000771  10.6692000  2
    909    911    913    917     1  180.0000771  10.6692000  2
    908    906    922    920     1  0.0000000  0.6508444  3
    908    906    922    924     1  0.0000000  0.6508444  3
    908    909    911    913     1  180.0000771  27.8236000  2
    908    918    917    913     1  180.0000771  16.7360000  2
    906    905    903    920     1  180.0000771  0.4184000  2
    906    905    903    920     1  0.0000000  1.6024720  3
    906    908    909    911     1  180.0000771  7.7404000  2
    906    908    918    917     1  180.0000771  6.0668000  2
    906    908    918    919     1  180.0000771  6.0668000  2
    906    922    920    926     1  0.0000000  0.6508444  3
    905    903    920    922     1  0.0000000  0.6508444  3
    905    903    920    926     1  0.0000000  4.9162000  2
    905    903    920    926     1  0.0000000  0.6024960  3
    905    906    908    909     1  111.1800474  2.8397101  1
    905    906    908    909     1  340.2301459  5.0000223  2
    905    906    908    909     1  28.2000121  -3.7349982  3
    905    906    908    909     1  355.0801519  -1.2977304  4
    905    906    908    918     1  0.0000000  0.0000000  2
    905    906    922    920     1  0.0000000  0.6508444  3
    905    906    922    924     1  0.0000000  4.9162000  2
    905    906    922    924     1  0.0000000  0.6024960  3
    903    905    906    908     1  0.0000000  2.7196000  2
    903    905    906    908     1  0.0000000  1.6024720  3
    903    905    906    922     1  180.0000771  0.4184000  2
    903    905    906    922     1  0.0000000  1.6024720  3
    903    920    922    906     1  180.0000771  0.8368000  1
    903    920    922    906     1  180.0000771  1.0460000  2
    903    920    922    906     1  0.0000000  0.7531200  3
    903    920    922    924     1  0.0000000  0.6508444  3
    903    920    926    927     1  0.0000000  1.6038667  3
    900    903    905    906     1  180.0000771  0.4184000  2
    900    903    905    906     1  0.0000000  1.6024720  3
    900    903    920    922     1  180.0000771  0.8368000  1
    900    903    920    922     1  180.0000771  1.0460000  2
    900    903    920    922     1  0.0000000  0.7531200  3
    900    903    920    926     1  0.0000000  0.6508444  3
    899    900    903    905     1  0.0000000  0.6508444  3
    899    900    903    920     1  299.6901286  -1.5060182  1
    899    900    903    920     1  274.1001175  5.1381528  2
    899    900    903    920     1  342.2101465  3.2676873  3
    898    896    899    900     1  0.0000000  1.0460000  3
    897    896    899    900     1  0.0000000  1.0460000  3
    896    899    900    903     1  0.0000000  1.6038667  3
    959    960    963    964     1  31.7950936  0.7747973  1
    959    960    963    964     1  351.9597510  5.2573257  2
    959    960    963    964     1  357.2476330  1.4847259  3
    957    955    953    959     1  0.0000000  4.9162000  2
    957    955    953    959     1  0.0000000  0.6024960  3
    955    953    959    960     1  0.0000000  1.6038667  3
    953    959    960    961     1  0.0000000  1.0460000  3
    953    959    960    962     1  0.0000000  1.0460000  3
    953    959    960    963     1  333.9801429  -1.1598843  1
    953    959    960    963     1  2.9800013  4.4603365  2
    953    959    960    963     1  29.4700126  0.7878430  3
    952    939    937    955     1  0.0000000  0.0000000  2
    948    944    943    952     1  180.0000771  14.6440000  2
    948    949    951    952     1  180.0000771  28.4512000  2
    945    944    943    952     1  180.0000771  14.6440000  2
    945    944    948    949     1  180.0000771  20.0832000  2
    944    943    952    951     1  180.0000771  22.8028000  2
    944    948    949    951     1  180.0000771  28.4512000  2
    943    944    948    949     1  180.0000771  20.0832000  2
    943    952    951    949     1  180.0000771  17.3636000  2
    942    940    939    952     1  180.0000771  7.1128000  2
    942    943    944    945     1  180.0000771  14.6440000  2
    942    943    944    948     1  180.0000771  14.6440000  2
    942    943    952    951     1  180.0000771  22.8028000  2
    940    939    937    955     1  0.0000000  0.0000000  2
    940    939    952    943     1  180.0000771  6.9036000  2
    940    939    952    951     1  180.0000771  6.9036000  2
    940    942    943    944     1  180.0000771  10.6692000  2
    940    942    943    952     1  180.0000771  10.6692000  2
    939    937    955    953     1  0.0000000  0.6508444  3
    939    937    955    957     1  0.0000000  0.6508444  3
    939    940    942    943     1  180.0000771  41.8400000  2
    939    952    943    942     1  180.0000771  22.8028000  2
    939    952    943    944     1  180.0000771  22.8028000  2
    939    952    951    949     1  180.0000771  17.3636000  2
    937    936    934    953     1  180.0000771  0.4184000  2
    937    936    934    953     1  0.0000000  1.6024720  3
    937    939    940    942     1  180.0000771  7.1128000  2
    937    939    952    943     1  180.0000771  6.9036000  2
    937    939    952    951     1  180.0000771  6.9036000  2
    937    955    953    959     1  0.0000000  0.6508444  3
    936    934    953    955     1  0.0000000  0.6508444  3
    936    934    953    959     1  0.0000000  4.9162000  2
    936    934    953    959     1  0.0000000  0.6024960  3
    936    937    939    940     1  98.2900423  3.1435856  1
    936    937    939    940     1  328.5601409  4.5857268  2
    936    937    939    940     1  50.5200217  -1.7297325  3
    936    937    939    940     1  40.9900176  0.2709140  4
    936    937    939    952     1  0.0000000  0.0000000  2
    936    937    955    953     1  0.0000000  0.6508444  3
    936    937    955    957     1  0.0000000  4.9162000  2
    936    937    955    957     1  0.0000000  0.6024960  3
    934    936    937    939     1  0.0000000  2.7196000  2
    934    936    937    939     1  0.0000000  1.6024720  3
    934    936    937    955     1  180.0000771  0.4184000  2
    934    936    937    955     1  0.0000000  1.6024720  3
    934    953    955    937     1  180.0000771  0.8368000  1
    934    953    955    937     1  180.0000771  1.0460000  2
    934    953    955    937     1  0.0000000  0.7531200  3
    934    953    955    957     1  0.0000000  0.6508444  3
    934    953    959    960     1  0.0000000  1.6038667  3
    931    934    936    937     1  180.0000771  0.4184000  2
    931    934    936    937     1  0.0000000  1.6024720  3
    931    934    953    955     1  180.0000771  0.8368000  1
    931    934    953    955     1  180.0000771  1.0460000  2
    931    934    953    955     1  0.0000000  0.7531200  3
    931    934    953    959     1  0.0000000  0.6508444  3
    930    931    934    936     1  0.0000000  0.6508444  3
    930    931    934    953     1  299.6901286  -1.5060182  1
    930    931    934    953     1  274.1001175  5.1381528  2
    930    931    934    953     1  342.2101465  3.2676873  3
    929    927    930    931     1  0.0000000  1.0460000  3
    928    927    930    931     1  0.0000000  1.0460000  3
    927    930    931    934     1  0.0000000  1.6038667  3
    993    994    997    998     1  31.7950936  0.7747973  1
    993    994    997    998     1  351.9597510  5.2573257  2
    993    994    997    998     1  357.2476330  1.4847259  3
    991    989    987    993     1  0.0000000  4.9162000  2
    991    989    987    993     1  0.0000000  0.6024960  3
    989    987    993    994     1  0.0000000  1.6038667  3
    987    993    994    995     1  0.0000000  1.0460000  3
    987    993    994    996     1  0.0000000  1.0460000  3
    987    993    994    997     1  333.9801429  -1.1598843  1
    987    993    994    997     1  2.9800013  4.4603365  2
    987    993    994    997     1  29.4700126  0.7878430  3
    986    972    970    989     1  0.0000000  0.0000000  2
    982    981    985    986     1  180.0000771  20.0832000  2
    979    977    976    986     1  180.0000771  12.5520000  2
    979    981    985    986     1  180.0000771  20.0832000  2
    978    977    976    986     1  180.0000771  12.5520000  2
    978    977    979    981     1  180.0000771  5.6484000  2
    977    976    986    985     1  180.0000771  22.8028000  2
    977    979    981    982     1  180.0000771  6.2760000  2
    977    979    981    985     1  180.0000771  6.2760000  2
    976    977    979    981     1  180.0000771  5.6484000  2
    976    986    985    981     1  180.0000771  17.3636000  2
    975    973    972    986     1  180.0000771  7.1128000  2
    975    976    977    978     1  180.0000771  12.5520000  2
    975    976    977    979     1  180.0000771  12.5520000  2
    975    976    986    985     1  180.0000771  22.8028000  2
    973    972    970    989     1  0.0000000  0.0000000  2
    973    972    986    976     1  180.0000771  6.9036000  2
    973    972    986    985     1  180.0000771  6.9036000  2
    973    975    976    977     1  180.0000771  10.6692000  2
    973    975    976    986     1  180.0000771  10.6692000  2
    972    970    989    987     1  0.0000000  0.6508444  3
    972    970    989    991     1  0.0000000  0.6508444  3
    972    973    975    976     1  180.0000771  41.8400000  2
    972    986    976    975     1  180.0000771  22.8028000  2
    972    986    976    977     1  180.0000771  22.8028000  2
    972    986    985    981     1  180.0000771  17.3636000  2
    970    969    967    987     1  180.0000771  0.4184000  2
    970    969    967    987     1  0.0000000  1.6024720  3
    970    972    973    975     1  180.0000771  7.1128000  2
    970    972    986    976     1  180.0000771  6.9036000  2
    970    972    986    985     1  180.0000771  6.9036000  2
    970    989    987    993     1  0.0000000  0.6508444  3
    969    967    987    989     1  0.0000000  0.6508444  3
    969    967    987    993     1  0.0000000  4.9162000  2
    969    967    987    993     1  0.0000000  0.6024960  3
    969    970    972    973     1  287.1401229  -3.8169126  1
    969    970    972    973     1  331.9701422  5.7662424  2
    969    970    972    973     1  27.7600119  -1.7805138  3
    969    970    972    973     1  328.1301407  0.2514082  4
    969    970    972    986     1  0.0000000  0.0000000  2
    969    970    989    987     1  0.0000000  0.6508444  3
    969    970    989    991     1  0.0000000  4.9162000  2
    969    970    989    991     1  0.0000000  0.6024960  3
    967    969    970    972     1  0.0000000  2.7196000  2
    967    969    970    972     1  0.0000000  1.6024720  3
    967    969    970    989     1  180.0000771  0.4184000  2
    967    969    970    989     1  0.0000000  1.6024720  3
    967    987    989    970     1  180.0000771  0.8368000  1
    967    987    989    970     1  180.0000771  1.0460000  2
    967    987    989    970     1  0.0000000  0.7531200  3
    967    987    989    991     1  0.0000000  0.6508444  3
    967    987    993    994     1  0.0000000  1.6038667  3
    964    967    969    970     1  180.0000771  0.4184000  2
    964    967    969    970     1  0.0000000  1.6024720  3
    964    967    987    989     1  180.0000771  0.8368000  1
    964    967    987    989     1  180.0000771  1.0460000  2
    964    967    987    989     1  0.0000000  0.7531200  3
    964    967    987    993     1  0.0000000  0.6508444  3
    963    964    967    969     1  0.0000000  0.6508444  3
    963    964    967    987     1  299.6901286  -1.5060182  1
    963    964    967    987     1  274.1001175  5.1381528  2
    963    964    967    987     1  342.2101465  3.2676873  3
    962    960    963    964     1  0.0000000  1.0460000  3
    961    960    963    964     1  0.0000000  1.0460000  3
    960    963    964    967     1  0.0000000  1.6038667  3
   1024   1025   1028   1029     1  31.7950936  0.7747973  1
   1024   1025   1028   1029     1  351.9597510  5.2573257  2
   1024   1025   1028   1029     1  357.2476330  1.4847259  3
   1022   1020   1018   1024     1  0.0000000  4.9162000  2
   1022   1020   1018   1024     1  0.0000000  0.6024960  3
   1020   1018   1024   1025     1  0.0000000  1.6038667  3
   1018   1024   1025   1026     1  0.0000000  1.0460000  3
   1018   1024   1025   1027     1  0.0000000  1.0460000  3
   1018   1024   1025   1028     1  333.9801429  -1.1598843  1
   1018   1024   1025   1028     1  2.9800013  4.4603365  2
   1018   1024   1025   1028     1  29.4700126  0.7878430  3
   1016   1006   1004   1020     1  0.0000000  0.0000000  2
   1012   1011   1015   1016     1  180.0000771  20.0832000  2
   1011   1015   1016   1017     1  180.0000771  16.7360000  2
   1009   1007   1006   1016     1  180.0000771  7.7404000  2
   1009   1011   1015   1016     1  180.0000771  20.0832000  2
   1007   1006   1004   1020     1  0.0000000  0.0000000  2
   1007   1006   1016   1015     1  180.0000771  6.0668000  2
   1007   1006   1016   1017     1  180.0000771  6.0668000  2
   1007   1009   1011   1012     1  180.0000771  10.6692000  2
   1007   1009   1011   1015     1  180.0000771  10.6692000  2
   1006   1004   1020   1018     1  0.0000000  0.6508444  3
   1006   1004   1020   1022     1  0.0000000  0.6508444  3
   1006   1007   1009   1011     1  180.0000771  27.8236000  2
   1006   1016   1015   1011     1  180.0000771  16.7360000  2
   1004   1003   1001   1018     1  180.0000771  0.4184000  2
   1004   1003   1001   1018     1  0.0000000  1.6024720  3
   1004   1006   1007   1009     1  180.0000771  7.7404000  2
   1004   1006   1016   1015     1  180.0000771  6.0668000  2
   1004   1006   1016   1017     1  180.0000771  6.0668000  2
   1004   1020   1018   1024     1  0.0000000  0.6508444  3
   1003   1001   1018   1020     1  0.0000000  0.6508444  3
   1003   1001   1018   1024     1  0.0000000  4.9162000  2
   1003   1001   1018   1024     1  0.0000000  0.6024960  3
   1003   1004   1006   1007     1  111.1800474  2.8397101  1
   1003   1004   1006   1007     1  340.2301459  5.0000223  2
   1003   1004   1006   1007     1  28.2000121  -3.7349982  3
   1003   1004   1006   1007     1  355.0801519  -1.2977304  4
   1003   1004   1006   1016     1  0.0000000  0.0000000  2
   1003   1004   1020   1018     1  0.0000000  0.6508444  3
   1003   1004   1020   1022     1  0.0000000  4.9162000  2
   1003   1004   1020   1022     1  0.0000000  0.6024960  3
   1001   1003   1004   1006     1  0.0000000  2.7196000  2
   1001   1003   1004   1006     1  0.0000000  1.6024720  3
   1001   1003   1004   1020     1  180.0000771  0.4184000  2
   1001   1003   1004   1020     1  0.0000000  1.6024720  3
   1001   1018   1020   1004     1  180.0000771  0.8368000  1
   1001   1018   1020   1004     1  180.0000771  1.0460000  2
   1001   1018   1020   1004     1  0.0000000  0.7531200  3
   1001   1018   1020   1022     1  0.0000000  0.6508444  3
   1001   1018   1024   1025     1  0.0000000  1.6038667  3
    998   1001   1003   1004     1  180.0000771  0.4184000  2
    998   1001   1003   1004     1  0.0000000  1.6024720  3
    998   1001   1018   1020     1  180.0000771  0.8368000  1
    998   1001   1018   1020     1  180.0000771  1.0460000  2
    998   1001   1018   1020     1  0.0000000  0.7531200  3
    998   1001   1018   1024     1  0.0000000  0.6508444  3
    997    998   1001   1003     1  0.0000000  0.6508444  3
    997    998   1001   1018     1  299.6901286  -1.5060182  1
    997    998   1001   1018     1  274.1001175  5.1381528  2
    997    998   1001   1018     1  342.2101465  3.2676873  3
    996    994    997    998     1  0.0000000  1.0460000  3
    995    994    997    998     1  0.0000000  1.0460000  3
    994    997    998   1001     1  0.0000000  1.6038667  3
   1055   1056   1059   1060     1  31.7950936  0.7747973  1
   1055   1056   1059   1060     1  351.9597510  5.2573257  2
   1055   1056   1059   1060     1  357.2476330  1.4847259  3
   1053   1051   1049   1055     1  0.0000000  4.9162000  2
   1053   1051   1049   1055     1  0.0000000  0.6024960  3
   1051   1049   1055   1056     1  0.0000000  1.6038667  3
   1049   1055   1056   1057     1  0.0000000  1.0460000  3
   1049   1055   1056   1058     1  0.0000000  1.0460000  3
   1049   1055   1056   1059     1  333.9801429  -1.1598843  1
   1049   1055   1056   1059     1  2.9800013  4.4603365  2
   1049   1055   1056   1059     1  29.4700126  0.7878430  3
   1047   1037   1035   1051     1  0.0000000  0.0000000  2
   1043   1042   1046   1047     1  180.0000771  20.0832000  2
   1042   1046   1047   1048     1  180.0000771  16.7360000  2
   1040   1038   1037   1047     1  180.0000771  7.7404000  2
   1040   1042   1046   1047     1  180.0000771  20.0832000  2
   1038   1037   1035   1051     1  0.0000000  0.0000000  2
   1038   1037   1047   1046     1  180.0000771  6.0668000  2
   1038   1037   1047   1048     1  180.0000771  6.0668000  2
   1038   1040   1042   1043     1  180.0000771  10.6692000  2
   1038   1040   1042   1046     1  180.0000771  10.6692000  2
   1037   1035   1051   1049     1  0.0000000  0.6508444  3
   1037   1035   1051   1053     1  0.0000000  0.6508444  3
   1037   1038   1040   1042     1  180.0000771  27.8236000  2
   1037   1047   1046   1042     1  180.0000771  16.7360000  2
   1035   1034   1032   1049     1  180.0000771  0.4184000  2
   1035   1034   1032   1049     1  0.0000000  1.6024720  3
   1035   1037   1038   1040     1  180.0000771  7.7404000  2
   1035   1037   1047   1046     1  180.0000771  6.0668000  2
   1035   1037   1047   1048     1  180.0000771  6.0668000  2
   1035   1051   1049   1055     1  0.0000000  0.6508444  3
   1034   1032   1049   1051     1  0.0000000  0.6508444  3
   1034   1032   1049   1055     1  0.0000000  4.9162000  2
   1034   1032   1049   1055     1  0.0000000  0.6024960  3
   1034   1035   1037   1038     1  111.1800474  2.8397101  1
   1034   1035   1037   1038     1  340.2301459  5.0000223  2
   1034   1035   1037   1038     1  28.2000121  -3.7349982  3
   1034   1035   1037   1038     1  355.0801519  -1.2977304  4
   1034   1035   1037   1047     1  0.0000000  0.0000000  2
   1034   1035   1051   1049     1  0.0000000  0.6508444  3
   1034   1035   1051   1053     1  0.0000000  4.9162000  2
   1034   1035   1051   1053     1  0.0000000  0.6024960  3
   1032   1034   1035   1037     1  0.0000000  2.7196000  2
   1032   1034   1035   1037     1  0.0000000  1.6024720  3
   1032   1034   1035   1051     1  180.0000771  0.4184000  2
   1032   1034   1035   1051     1  0.0000000  1.6024720  3
   1032   1049   1051   1035     1  180.0000771  0.8368000  1
   1032   1049   1051   1035     1  180.0000771  1.0460000  2
   1032   1049   1051   1035     1  0.0000000  0.7531200  3
   1032   1049   1051   1053     1  0.0000000  0.6508444  3
   1032   1049   1055   1056     1  0.0000000  1.6038667  3
   1029   1032   1034   1035     1  180.0000771  0.4184000  2
   1029   1032   1034   1035     1  0.0000000  1.6024720  3
   1029   1032   1049   1051     1  180.0000771  0.8368000  1
   1029   1032   1049   1051     1  180.0000771  1.0460000  2
   1029   1032   1049   1051     1  0.0000000  0.7531200  3
   1029   1032   1049   1055     1  0.0000000  0.6508444  3
   1028   1029   1032   1034     1  0.0000000  0.6508444  3
   1028   1029   1032   1049     1  299.6901286  -1.5060182  1
   1028   1029   1032   1049     1  274.1001175  5.1381528  2
   1028   1029   1032   1049     1  342.2101465  3.2676873  3
   1027   1025   1028   1029     1  0.0000000  1.0460000  3
   1026   1025   1028   1029     1  0.0000000  1.0460000  3
   1025   1028   1029   1032     1  0.0000000  1.6038667  3
   1086   1087   1090   1091     1  31.7950936  0.7747973  1
   1086   1087   1090   1091     1  351.9597510  5.2573257  2
   1086   1087   1090   1091     1  357.2476330  1.4847259  3
   1084   1082   1080   1086     1  0.0000000  4.9162000  2
   1084   1082   1080   1086     1  0.0000000  0.6024960  3
   1082   1080   1086   1087     1  0.0000000  1.6038667  3
   1080   1086   1087   1088     1  0.0000000  1.0460000  3
   1080   1086   1087   1089     1  0.0000000  1.0460000  3
   1080   1086   1087   1090     1  333.9801429  -1.1598843  1
   1080   1086   1087   1090     1  2.9800013  4.4603365  2
   1080   1086   1087   1090     1  29.4700126  0.7878430  3
   1078   1068   1066   1082     1  0.0000000  0.0000000  2
   1074   1073   1077   1078     1  180.0000771  20.0832000  2
   1073   1077   1078   1079     1  180.0000771  16.7360000  2
   1071   1069   1068   1078     1  180.0000771  7.7404000  2
   1071   1073   1077   1078     1  180.0000771  20.0832000  2
   1069   1068   1066   1082     1  0.0000000  0.0000000  2
   1069   1068   1078   1077     1  180.0000771  6.0668000  2
   1069   1068   1078   1079     1  180.0000771  6.0668000  2
   1069   1071   1073   1074     1  180.0000771  10.6692000  2
   1069   1071   1073   1077     1  180.0000771  10.6692000  2
   1068   1066   1082   1080     1  0.0000000  0.6508444  3
   1068   1066   1082   1084     1  0.0000000  0.6508444  3
   1068   1069   1071   1073     1  180.0000771  27.8236000  2
   1068   1078   1077   1073     1  180.0000771  16.7360000  2
   1066   1065   1063   1080     1  180.0000771  0.4184000  2
   1066   1065   1063   1080     1  0.0000000  1.6024720  3
   1066   1068   1069   1071     1  180.0000771  7.7404000  2
   1066   1068   1078   1077     1  180.0000771  6.0668000  2
   1066   1068   1078   1079     1  180.0000771  6.0668000  2
   1066   1082   1080   1086     1  0.0000000  0.6508444  3
   1065   1063   1080   1082     1  0.0000000  0.6508444  3
   1065   1063   1080   1086     1  0.0000000  4.9162000  2
   1065   1063   1080   1086     1  0.0000000  0.6024960  3
   1065   1066   1068   1069     1  111.1800474  2.8397101  1
   1065   1066   1068   1069     1  340.2301459  5.0000223  2
   1065   1066   1068   1069     1  28.2000121  -3.7349982  3
   1065   1066   1068   1069     1  355.0801519  -1.2977304  4
   1065   1066   1068   1078     1  0.0000000  0.0000000  2
   1065   1066   1082   1080     1  0.0000000  0.6508444  3
   1065   1066   1082   1084     1  0.0000000  4.9162000  2
   1065   1066   1082   1084     1  0.0000000  0.6024960  3
   1063   1065   1066   1068     1  0.0000000  2.7196000  2
   1063   1065   1066   1068     1  0.0000000  1.6024720  3
   1063   1065   1066   1082     1  180.0000771  0.4184000  2
   1063   1065   1066   1082     1  0.0000000  1.6024720  3
   1063   1080   1082   1066     1  180.0000771  0.8368000  1
   1063   1080   1082   1066     1  180.0000771  1.0460000  2
   1063   1080   1082   1066     1  0.0000000  0.7531200  3
   1063   1080   1082   1084     1  0.0000000  0.6508444  3
   1063   1080   1086   1087     1  0.0000000  1.6038667  3
   1060   1063   1065   1066     1  180.0000771  0.4184000  2
   1060   1063   1065   1066     1  0.0000000  1.6024720  3
   1060   1063   1080   1082     1  180.0000771  0.8368000  1
   1060   1063   1080   1082     1  180.0000771  1.0460000  2
   1060   1063   1080   1082     1  0.0000000  0.7531200  3
   1060   1063   1080   1086     1  0.0000000  0.6508444  3
   1059   1060   1063   1065     1  0.0000000  0.6508444  3
   1059   1060   1063   1080     1  299.6901286  -1.5060182  1
   1059   1060   1063   1080     1  274.1001175  5.1381528  2
   1059   1060   1063   1080     1  342.2101465  3.2676873  3
   1058   1056   1059   1060     1  0.0000000  1.0460000  3
   1057   1056   1059   1060     1  0.0000000  1.0460000  3
   1056   1059   1060   1063     1  0.0000000  1.6038667  3
   1120   1121   1124   1125     1  31.7950936  0.7747973  1
   1120   1121   1124   1125     1  351.9597510  5.2573257  2
   1120   1121   1124   1125     1  357.2476330  1.4847259  3
   1118   1116   1114   1120     1  0.0000000  4.9162000  2
   1118   1116   1114   1120     1  0.0000000  0.6024960  3
   1116   1114   1120   1121     1  0.0000000  1.6038667  3
   1114   1120   1121   1122     1  0.0000000  1.0460000  3
   1114   1120   1121   1123     1  0.0000000  1.0460000  3
   1114   1120   1121   1124     1  333.9801429  -1.1598843  1
   1114   1120   1121   1124     1  2.9800013  4.4603365  2
   1114   1120   1121   1124     1  29.4700126  0.7878430  3
   1113   1099   1097   1116     1  0.0000000  0.0000000  2
   1109   1108   1112   1113     1  180.0000771  20.0832000  2
   1106   1104   1103   1113     1  180.0000771  12.5520000  2
   1106   1108   1112   1113     1  180.0000771  20.0832000  2
   1105   1104   1103   1113     1  180.0000771  12.5520000  2
   1105   1104   1106   1108     1  180.0000771  5.6484000  2
   1104   1103   1113   1112     1  180.0000771  22.8028000  2
   1104   1106   1108   1109     1  180.0000771  6.2760000  2
   1104   1106   1108   1112     1  180.0000771  6.2760000  2
   1103   1104   1106   1108     1  180.0000771  5.6484000  2
   1103   1113   1112   1108     1  180.0000771  17.3636000  2
   1102   1100   1099   1113     1  180.0000771  7.1128000  2
   1102   1103   1104   1105     1  180.0000771  12.5520000  2
   1102   1103   1104   1106     1  180.0000771  12.5520000  2
   1102   1103   1113   1112     1  180.0000771  22.8028000  2
   1100   1099   1097   1116     1  0.0000000  0.0000000  2
   1100   1099   1113   1103     1  180.0000771  6.9036000  2
   1100   1099   1113   1112     1  180.0000771  6.9036000  2
   1100   1102   1103   1104     1  180.0000771  10.6692000  2
   1100   1102   1103   1113     1  180.0000771  10.6692000  2
   1099   1097   1116   1114     1  0.0000000  0.6508444  3
   1099   1097   1116   1118     1  0.0000000  0.6508444  3
   1099   1100   1102   1103     1  180.0000771  41.8400000  2
   1099   1113   1103   1102     1  180.0000771  22.8028000  2
   1099   1113   1103   1104     1  180.0000771  22.8028000  2
   1099   1113   1112   1108     1  180.0000771  17.3636000  2
   1097   1096   1094   1114     1  180.0000771  0.4184000  2
   1097   1096   1094   1114     1  0.0000000  1.6024720  3
   1097   1099   1100   1102     1  180.0000771  7.1128000  2
   1097   1099   1113   1103     1  180.0000771  6.9036000  2
   1097   1099   1113   1112     1  180.0000771  6.9036000  2
   1097   1116   1114   1120     1  0.0000000  0.6508444  3
   1096   1094   1114   1116     1  0.0000000  0.6508444  3
   1096   1094   1114   1120     1  0.0000000  4.9162000  2
   1096   1094   1114   1120     1  0.0000000  0.6024960  3
   1096   1097   1099   1100     1  287.1401229  -3.8169126  1
   1096   1097   1099   1100     1  331.9701422  5.7662424  2
   1096   1097   1099   1100     1  27.7600119  -1.7805138  3
   1096   1097   1099   1100     1  328.1301407  0.2514082  4
   1096   1097   1099   1113     1  0.0000000  0.0000000  2
   1096   1097   1116   1114     1  0.0000000  0.6508444  3
   1096   1097   1116   1118     1  0.0000000  4.9162000  2
   1096   1097   1116   1118     1  0.0000000  0.6024960  3
   1094   1096   1097   1099     1  0.0000000  2.7196000  2
   1094   1096   1097   1099     1  0.0000000  1.6024720  3
   1094   1096   1097   1116     1  180.0000771  0.4184000  2
   1094   1096   1097   1116     1  0.0000000  1.6024720  3
   1094   1114   1116   1097     1  180.0000771  0.8368000  1
   1094   1114   1116   1097     1  180.0000771  1.0460000  2
   1094   1114   1116   1097     1  0.0000000  0.7531200  3
   1094   1114   1116   1118     1  0.0000000  0.6508444  3
   1094   1114   1120   1121     1  0.0000000  1.6038667  3
   1091   1094   1096   1097     1  180.0000771  0.4184000  2
   1091   1094   1096   1097     1  0.0000000  1.6024720  3
   1091   1094   1114   1116     1  180.0000771  0.8368000  1
   1091   1094   1114   1116     1  180.0000771  1.0460000  2
   1091   1094   1114   1116     1  0.0000000  0.7531200  3
   1091   1094   1114   1120     1  0.0000000  0.6508444  3
   1090   1091   1094   1096     1  0.0000000  0.6508444  3
   1090   1091   1094   1114     1  299.6901286  -1.5060182  1
   1090   1091   1094   1114     1  274.1001175  5.1381528  2
   1090   1091   1094   1114     1  342.2101465  3.2676873  3
   1089   1087   1090   1091     1  0.0000000  1.0460000  3
   1088   1087   1090   1091     1  0.0000000  1.0460000  3
   1087   1090   1091   1094     1  0.0000000  1.6038667  3
   1150   1151   1154   1155     1  31.7950936  0.7747973  1
   1150   1151   1154   1155     1  351.9597510  5.2573257  2
   1150   1151   1154   1155     1  357.2476330  1.4847259  3
   1148   1146   1144   1150     1  0.0000000  4.9162000  2
   1148   1146   1144   1150     1  0.0000000  0.6024960  3
   1146   1144   1150   1151     1  0.0000000  1.6038667  3
   1144   1150   1151   1152     1  0.0000000  1.0460000  3
   1144   1150   1151   1153     1  0.0000000  1.0460000  3
   1144   1150   1151   1154     1  333.9801429  -1.1598843  1
   1144   1150   1151   1154     1  2.9800013  4.4603365  2
   1144   1150   1151   1154     1  29.4700126  0.7878430  3
   1142   1133   1131   1146     1  0.0000000  0.0000000  2
   1139   1138   1140   1142     1  180.0000771  5.6484000  2
   1138   1140   1142   1143     1  180.0000771  5.6484000  2
   1136   1134   1133   1142     1  180.0000771  7.7404000  2
   1136   1138   1140   1142     1  180.0000771  5.6484000  2
   1134   1133   1131   1146     1  0.0000000  0.0000000  2
   1134   1133   1142   1140     1  180.0000771  6.0668000  2
   1134   1133   1142   1143     1  180.0000771  6.0668000  2
   1134   1136   1138   1139     1  180.0000771  9.1002000  2
   1134   1136   1138   1139     1  0.0000000  1.2552000  3
   1134   1136   1138   1140     1  180.0000771  9.1002000  2
   1133   1131   1146   1144     1  0.0000000  0.6508444  3
   1133   1131   1146   1148     1  0.0000000  0.6508444  3
   1133   1134   1136   1138     1  180.0000771  27.8236000  2
   1133   1142   1140   1138     1  180.0000771  5.6484000  2
   1131   1130   1128   1144     1  180.0000771  0.4184000  2
   1131   1130   1128   1144     1  0.0000000  1.6024720  3
   1131   1133   1134   1136     1  180.0000771  7.7404000  2
   1131   1133   1142   1140     1  180.0000771  6.0668000  2
   1131   1133   1142   1143     1  180.0000771  6.0668000  2
   1131   1146   1144   1150     1  0.0000000  0.6508444  3
   1130   1128   1144   1146     1  0.0000000  0.6508444  3
   1130   1128   1144   1150     1  0.0000000  4.9162000  2
   1130   1128   1144   1150     1  0.0000000  0.6024960  3
   1130   1131   1133   1134     1  147.4600633  2.5402277  1
   1130   1131   1133   1134     1  346.4201487  5.4288069  2
   1130   1131   1133   1134     1  38.1300163  -2.0913808  3
   1130   1131   1133   1134     1  348.0001491  -0.6909207  4
   1130   1131   1133   1142     1  0.0000000  0.0000000  2
   1130   1131   1146   1144     1  0.0000000  0.6508444  3
   1130   1131   1146   1148     1  0.0000000  4.9162000  2
   1130   1131   1146   1148     1  0.0000000  0.6024960  3
   1128   1130   1131   1133     1  0.0000000  2.7196000  2
   1128   1130   1131   1133     1  0.0000000  1.6024720  3
   1128   1130   1131   1146     1  180.0000771  0.4184000  2
   1128   1130   1131   1146     1  0.0000000  1.6024720  3
   1128   1144   1146   1131     1  180.0000771  0.8368000  1
   1128   1144   1146   1131     1  180.0000771  1.0460000  2
   1128   1144   1146   1131     1  0.0000000  0.7531200  3
   1128   1144   1146   1148     1  0.0000000  0.6508444  3
   1128   1144   1150   1151     1  0.0000000  1.6038667  3
   1125   1128   1130   1131     1  180.0000771  0.4184000  2
   1125   1128   1130   1131     1  0.0000000  1.6024720  3
   1125   1128   1144   1146     1  180.0000771  0.8368000  1
   1125   1128   1144   1146     1  180.0000771  1.0460000  2
   1125   1128   1144   1146     1  0.0000000  0.7531200  3
   1125   1128   1144   1150     1  0.0000000  0.6508444  3
   1124   1125   1128   1130     1  0.0000000  0.6508444  3
   1124   1125   1128   1144     1  299.6901286  -1.5060182  1
   1124   1125   1128   1144     1  274.1001175  5.1381528  2
   1124   1125   1128   1144     1  342.2101465  3.2676873  3
   1123   1121   1124   1125     1  0.0000000  1.0460000  3
   1122   1121   1124   1125     1  0.0000000  1.0460000  3
   1121   1124   1125   1128     1  0.0000000  1.6038667  3
   1181   1182   1185   1186     1  31.7950936  0.7747973  1
   1181   1182   1185   1186     1  351.9597510  5.2573257  2
   1181   1182   1185   1186     1  357.2476330  1.4847259  3
   1179   1177   1175   1181     1  0.0000000  4.9162000  2
   1179   1177   1175   1181     1  0.0000000  0.6024960  3
   1177   1175   1181   1182     1  0.0000000  1.6038667  3
   1175   1181   1182   1183     1  0.0000000  1.0460000  3
   1175   1181   1182   1184     1  0.0000000  1.0460000  3
   1175   1181   1182   1185     1  333.9801429  -1.1598843  1
   1175   1181   1182   1185     1  2.9800013  4.4603365  2
   1175   1181   1182   1185     1  29.4700126  0.7878430  3
   1173   1163   1161   1177     1  0.0000000  0.0000000  2
   1169   1168   1172   1173     1  180.0000771  20.0832000  2
   1168   1172   1173   1174     1  180.0000771  16.7360000  2
   1166   1164   1163   1173     1  180.0000771  7.7404000  2
   1166   1168   1172   1173     1  180.0000771  20.0832000  2
   1164   1163   1161   1177     1  0.0000000  0.0000000  2
   1164   1163   1173   1172     1  180.0000771  6.0668000  2
   1164   1163   1173   1174     1  180.0000771  6.0668000  2
   1164   1166   1168   1169     1  180.0000771  10.6692000  2
   1164   1166   1168   1172     1  180.0000771  10.6692000  2
   1163   1161   1177   1175     1  0.0000000  0.6508444  3
   1163   1161   1177   1179     1  0.0000000  0.6508444  3
   1163   1164   1166   1168     1  180.0000771  27.8236000  2
   1163   1173   1172   1168     1  180.0000771  16.7360000  2
   1161   1160   1158   1175     1  180.0000771  0.4184000  2
   1161   1160   1158   1175     1  0.0000000  1.6024720  3
   1161   1163   1164   1166     1  180.0000771  7.7404000  2
   1161   1163   1173   1172     1  180.0000771  6.0668000  2
   1161   1163   1173   1174     1  180.0000771  6.0668000  2
   1161   1177   1175   1181     1  0.0000000  0.6508444  3
   1160   1158   1175   1177     1  0.0000000  0.6508444  3
   1160   1158   1175   1181     1  0.0000000  4.9162000  2
   1160   1158   1175   1181     1  0.0000000  0.6024960  3
   1160   1161   1163   1164     1  111.1800474  2.8397101  1
   1160   1161   1163   1164     1  340.2301459  5.0000223  2
   1160   1161   1163   1164     1  28.2000121  -3.7349982  3
   1160   1161   1163   1164     1  355.0801519  -1.2977304  4
   1160   1161   1163   1173     1  0.0000000  0.0000000  2
   1160   1161   1177   1175     1  0.0000000  0.6508444  3
   1160   1161   1177   1179     1  0.0000000  4.9162000  2
   1160   1161   1177   1179     1  0.0000000  0.6024960  3
   1158   1160   1161   1163     1  0.0000000  2.7196000  2
   1158   1160   1161   1163     1  0.0000000  1.6024720  3
   1158   1160   1161   1177     1  180.0000771  0.4184000  2
   1158   1160   1161   1177     1  0.0000000  1.6024720  3
   1158   1175   1177   1161     1  180.0000771  0.8368000  1
   1158   1175   1177   1161     1  180.0000771  1.0460000  2
   1158   1175   1177   1161     1  0.0000000  0.7531200  3
   1158   1175   1177   1179     1  0.0000000  0.6508444  3
   1158   1175   1181   1182     1  0.0000000  1.6038667  3
   1155   1158   1160   1161     1  180.0000771  0.4184000  2
   1155   1158   1160   1161     1  0.0000000  1.6024720  3
   1155   1158   1175   1177     1  180.0000771  0.8368000  1
   1155   1158   1175   1177     1  180.0000771  1.0460000  2
   1155   1158   1175   1177     1  0.0000000  0.7531200  3
   1155   1158   1175   1181     1  0.0000000  0.6508444  3
   1154   1155   1158   1160     1  0.0000000  0.6508444  3
   1154   1155   1158   1175     1  299.6901286  -1.5060182  1
   1154   1155   1158   1175     1  274.1001175  5.1381528  2
   1154   1155   1158   1175     1  342.2101465  3.2676873  3
   1153   1151   1154   1155     1  0.0000000  1.0460000  3
   1152   1151   1154   1155     1  0.0000000  1.0460000  3
   1151   1154   1155   1158     1  0.0000000  1.6038667  3
   1211   1212   1215   1216     1  31.7950936  0.7747973  1
   1211   1212   1215   1216     1  351.9597510  5.2573257  2
   1211   1212   1215   1216     1  357.2476330  1.4847259  3
   1209   1207   1205   1211     1  0.0000000  4.9162000  2
   1209   1207   1205   1211     1  0.0000000  0.6024960  3
   1207   1205   1211   1212     1  0.0000000  1.6038667  3
   1205   1211   1212   1213     1  0.0000000  1.0460000  3
   1205   1211   1212   1214     1  0.0000000  1.0460000  3
   1205   1211   1212   1215     1  333.9801429  -1.1598843  1
   1205   1211   1212   1215     1  2.9800013  4.4603365  2
   1205   1211   1212   1215     1  29.4700126  0.7878430  3
   1203   1194   1192   1207     1  0.0000000  0.0000000  2
   1200   1199   1201   1203     1  180.0000771  5.6484000  2
   1199   1201   1203   1204     1  180.0000771  5.6484000  2
   1197   1195   1194   1203     1  180.0000771  7.7404000  2
   1197   1199   1201   1203     1  180.0000771  5.6484000  2
   1195   1194   1192   1207     1  0.0000000  0.0000000  2
   1195   1194   1203   1201     1  180.0000771  6.0668000  2
   1195   1194   1203   1204     1  180.0000771  6.0668000  2
   1195   1197   1199   1200     1  180.0000771  9.1002000  2
   1195   1197   1199   1200     1  0.0000000  1.2552000  3
   1195   1197   1199   1201     1  180.0000771  9.1002000  2
   1194   1192   1207   1205     1  0.0000000  0.6508444  3
   1194   1192   1207   1209     1  0.0000000  0.6508444  3
   1194   1195   1197   1199     1  180.0000771  27.8236000  2
   1194   1203   1201   1199     1  180.0000771  5.6484000  2
   1192   1191   1189   1205     1  180.0000771  0.4184000  2
   1192   1191   1189   1205     1  0.0000000  1.6024720  3
   1192   1194   1195   1197     1  180.0000771  7.7404000  2
   1192   1194   1203   1201     1  180.0000771  6.0668000  2
   1192   1194   1203   1204     1  180.0000771  6.0668000  2
   1192   1207   1205   1211     1  0.0000000  0.6508444  3
   1191   1189   1205   1207     1  0.0000000  0.6508444  3
   1191   1189   1205   1211     1  0.0000000  4.9162000  2
   1191   1189   1205   1211     1  0.0000000  0.6024960  3
   1191   1192   1194   1195     1  147.4600633  2.5402277  1
   1191   1192   1194   1195     1  346.4201487  5.4288069  2
   1191   1192   1194   1195     1  38.1300163  -2.0913808  3
   1191   1192   1194   1195     1  348.0001491  -0.6909207  4
   1191   1192   1194   1203     1  0.0000000  0.0000000  2
   1191   1192   1207   1205     1  0.0000000  0.6508444  3
   1191   1192   1207   1209     1  0.0000000  4.9162000  2
   1191   1192   1207   1209     1  0.0000000  0.6024960  3
   1189   1191   1192   1194     1  0.0000000  2.7196000  2
   1189   1191   1192   1194     1  0.0000000  1.6024720  3
   1189   1191   1192   1207     1  180.0000771  0.4184000  2
   1189   1191   1192   1207     1  0.0000000  1.6024720  3
   1189   1205   1207   1192     1  180.0000771  0.8368000  1
   1189   1205   1207   1192     1  180.0000771  1.0460000  2
   1189   1205   1207   1192     1  0.0000000  0.7531200  3
   1189   1205   1207   1209     1  0.0000000  0.6508444  3
   1189   1205   1211   1212     1  0.0000000  1.6038667  3
   1186   1189   1191   1192     1  180.0000771  0.4184000  2
   1186   1189   1191   1192     1  0.0000000  1.6024720  3
   1186   1189   1205   1207     1  180.0000771  0.8368000  1
   1186   1189   1205   1207     1  180.0000771  1.0460000  2
   1186   1189   1205   1207     1  0.0000000  0.7531200  3
   1186   1189   1205   1211     1  0.0000000  0.6508444  3
   1185   1186   1189   1191     1  0.0000000  0.6508444  3
   1185   1186   1189   1205     1  299.6901286  -1.5060182  1
   1185   1186   1189   1205     1  274.1001175  5.1381528  2
   1185   1186   1189   1205     1  342.2101465  3.2676873  3
   1184   1182   1185   1186     1  0.0000000  1.0460000  3
   1183   1182   1185   1186     1  0.0000000  1.0460000  3
   1182   1185   1186   1189     1  0.0000000  1.6038667  3
   1241   1242   1245   1246     1  31.7950936  0.7747973  1
   1241   1242   1245   1246     1  351.9597510  5.2573257  2
   1241   1242   1245   1246     1  357.2476330  1.4847259  3
   1239   1237   1235   1241     1  0.0000000  4.9162000  2
   1239   1237   1235   1241     1  0.0000000  0.6024960  3
   1237   1235   1241   1242     1  0.0000000  1.6038667  3
   1235   1241   1242   1243     1  0.0000000  1.0460000  3
   1235   1241   1242   1244     1  0.0000000  1.0460000  3
   1235   1241   1242   1245     1  333.9801429  -1.1598843  1
   1235   1241   1242   1245     1  2.9800013  4.4603365  2
   1235   1241   1242   1245     1  29.4700126  0.7878430  3
   1233   1224   1222   1237     1  0.0000000  0.0000000  2
   1230   1229   1231   1233     1  180.0000771  5.6484000  2
   1229   1231   1233   1234     1  180.0000771  5.6484000  2
   1227   1225   1224   1233     1  180.0000771  7.7404000  2
   1227   1229   1231   1233     1  180.0000771  5.6484000  2
   1225   1224   1222   1237     1  0.0000000  0.0000000  2
   1225   1224   1233   1231     1  180.0000771  6.0668000  2
   1225   1224   1233   1234     1  180.0000771  6.0668000  2
   1225   1227   1229   1230     1  180.0000771  9.1002000  2
   1225   1227   1229   1230     1  0.0000000  1.2552000  3
   1225   1227   1229   1231     1  180.0000771  9.1002000  2
   1224   1222   1237   1235     1  0.0000000  0.6508444  3
   1224   1222   1237   1239     1  0.0000000  0.6508444  3
   1224   1225   1227   1229     1  180.0000771  27.8236000  2
   1224   1233   1231   1229     1  180.0000771  5.6484000  2
   1222   1221   1219   1235     1  180.0000771  0.4184000  2
   1222   1221   1219   1235     1  0.0000000  1.6024720  3
   1222   1224   1225   1227     1  180.0000771  7.7404000  2
   1222   1224   1233   1231     1  180.0000771  6.0668000  2
   1222   1224   1233   1234     1  180.0000771  6.0668000  2
   1222   1237   1235   1241     1  0.0000000  0.6508444  3
   1221   1219   1235   1237     1  0.0000000  0.6508444  3
   1221   1219   1235   1241     1  0.0000000  4.9162000  2
   1221   1219   1235   1241     1  0.0000000  0.6024960  3
   1221   1222   1224   1225     1  147.4600633  2.5402277  1
   1221   1222   1224   1225     1  346.4201487  5.4288069  2
   1221   1222   1224   1225     1  38.1300163  -2.0913808  3
   1221   1222   1224   1225     1  348.0001491  -0.6909207  4
   1221   1222   1224   1233     1  0.0000000  0.0000000  2
   1221   1222   1237   1235     1  0.0000000  0.6508444  3
   1221   1222   1237   1239     1  0.0000000  4.9162000  2
   1221   1222   1237   1239     1  0.0000000  0.6024960  3
   1219   1221   1222   1224     1  0.0000000  2.7196000  2
   1219   1221   1222   1224     1  0.0000000  1.6024720  3
   1219   1221   1222   1237     1  180.0000771  0.4184000  2
   1219   1221   1222   1237     1  0.0000000  1.6024720  3
   1219   1235   1237   1222     1  180.0000771  0.8368000  1
   1219   1235   1237   1222     1  180.0000771  1.0460000  2
   1219   1235   1237   1222     1  0.0000000  0.7531200  3
   1219   1235   1237   1239     1  0.0000000  0.6508444  3
   1219   1235   1241   1242     1  0.0000000  1.6038667  3
   1216   1219   1221   1222     1  180.0000771  0.4184000  2
   1216   1219   1221   1222     1  0.0000000  1.6024720  3
   1216   1219   1235   1237     1  180.0000771  0.8368000  1
   1216   1219   1235   1237     1  180.0000771  1.0460000  2
   1216   1219   1235   1237     1  0.0000000  0.7531200  3
   1216   1219   1235   1241     1  0.0000000  0.6508444  3
   1215   1216   1219   1221     1  0.0000000  0.6508444  3
   1215   1216   1219   1235     1  299.6901286  -1.5060182  1
   1215   1216   1219   1235     1  274.1001175  5.1381528  2
   1215   1216   1219   1235     1  342.2101465  3.2676873  3
   1214   1212   1215   1216     1  0.0000000  1.0460000  3
   1213   1212   1215   1216     1  0.0000000  1.0460000  3
   1212   1215   1216   1219     1  0.0000000  1.6038667  3
   1274   1275   1278   1279     1  31.7950936  0.7747973  1
   1274   1275   1278   1279     1  351.9597510  5.2573257  2
   1274   1275   1278   1279     1  357.2476330  1.4847259  3
   1272   1270   1268   1274     1  0.0000000  4.9162000  2
   1272   1270   1268   1274     1  0.0000000  0.6024960  3
   1270   1268   1274   1275     1  0.0000000  1.6038667  3
   1268   1274   1275   1276     1  0.0000000  1.0460000  3
   1268   1274   1275   1277     1  0.0000000  1.0460000  3
   1268   1274   1275   1278     1  333.9801429  -1.1598843  1
   1268   1274   1275   1278     1  2.9800013  4.4603365  2
   1268   1274   1275   1278     1  29.4700126  0.7878430  3
   1267   1254   1252   1270     1  0.0000000  0.0000000  2
   1263   1259   1258   1267     1  180.0000771  14.6440000  2
   1263   1264   1266   1267     1  180.0000771  28.4512000  2
   1260   1259   1258   1267     1  180.0000771  14.6440000  2
   1260   1259   1263   1264     1  180.0000771  20.0832000  2
   1259   1258   1267   1266     1  180.0000771  22.8028000  2
   1259   1263   1264   1266     1  180.0000771  28.4512000  2
   1258   1259   1263   1264     1  180.0000771  20.0832000  2
   1258   1267   1266   1264     1  180.0000771  17.3636000  2
   1257   1255   1254   1267     1  180.0000771  7.1128000  2
   1257   1258   1259   1260     1  180.0000771  14.6440000  2
   1257   1258   1259   1263     1  180.0000771  14.6440000  2
   1257   1258   1267   1266     1  180.0000771  22.8028000  2
   1255   1254   1252   1270     1  0.0000000  0.0000000  2
   1255   1254   1267   1258     1  180.0000771  6.9036000  2
   1255   1254   1267   1266     1  180.0000771  6.9036000  2
   1255   1257   1258   1259     1  180.0000771  10.6692000  2
   1255   1257   1258   1267     1  180.0000771  10.6692000  2
   1254   1252   1270   1268     1  0.0000000  0.6508444  3
   1254   1252   1270   1272     1  0.0000000  0.6508444  3
   1254   1255   1257   1258     1  180.0000771  41.8400000  2
   1254   1267   1258   1257     1  180.0000771  22.8028000  2
   1254   1267   1258   1259     1  180.0000771  22.8028000  2
   1254   1267   1266   1264     1  180.0000771  17.3636000  2
   1252   1251   1249   1268     1  180.0000771  0.4184000  2
   1252   1251   1249   1268     1  0.0000000  1.6024720  3
   1252   1254   1255   1257     1  180.0000771  7.1128000  2
   1252   1254   1267   1258     1  180.0000771  6.9036000  2
   1252   1254   1267   1266     1  180.0000771  6.9036000  2
   1252   1270   1268   1274     1  0.0000000  0.6508444  3
   1251   1249   1268   1270     1  0.0000000  0.6508444  3
   1251   1249   1268   1274     1  0.0000000  4.9162000  2
   1251   1249   1268   1274     1  0.0000000  0.6024960  3
   1251   1252   1254   1255     1  98.2900423  3.1435856  1
   1251   1252   1254   1255     1  328.5601409  4.5857268  2
   1251   1252   1254   1255     1  50.5200217  -1.7297325  3
   1251   1252   1254   1255     1  40.9900176  0.2709140  4
   1251   1252   1254   1267     1  0.0000000  0.0000000  2
   1251   1252   1270   1268     1  0.0000000  0.6508444  3
   1251   1252   1270   1272     1  0.0000000  4.9162000  2
   1251   1252   1270   1272     1  0.0000000  0.6024960  3
   1249   1251   1252   1254     1  0.0000000  2.7196000  2
   1249   1251   1252   1254     1  0.0000000  1.6024720  3
   1249   1251   1252   1270     1  180.0000771  0.4184000  2
   1249   1251   1252   1270     1  0.0000000  1.6024720  3
   1249   1268   1270   1252     1  180.0000771  0.8368000  1
   1249   1268   1270   1252     1  180.0000771  1.0460000  2
   1249   1268   1270   1252     1  0.0000000  0.7531200  3
   1249   1268   1270   1272     1  0.0000000  0.6508444  3
   1249   1268   1274   1275     1  0.0000000  1.6038667  3
   1246   1249   1251   1252     1  180.0000771  0.4184000  2
   1246   1249   1251   1252     1  0.0000000  1.6024720  3
   1246   1249   1268   1270     1  180.0000771  0.8368000  1
   1246   1249   1268   1270     1  180.0000771  1.0460000  2
   1246   1249   1268   1270     1  0.0000000  0.7531200  3
   1246   1249   1268   1274     1  0.0000000  0.6508444  3
   1245   1246   1249   1251     1  0.0000000  0.6508444  3
   1245   1246   1249   1268     1  299.6901286  -1.5060182  1
   1245   1246   1249   1268     1  274.1001175  5.1381528  2
   1245   1246   1249   1268     1  342.2101465  3.2676873  3
   1244   1242   1245   1246     1  0.0000000  1.0460000  3
   1243   1242   1245   1246     1  0.0000000  1.0460000  3
   1242   1245   1246   1249     1  0.0000000  1.6038667  3
   1305   1306   1309   1310     1  31.7950936  0.7747973  1
   1305   1306   1309   1310     1  351.9597510  5.2573257  2
   1305   1306   1309   1310     1  357.2476330  1.4847259  3
   1303   1301   1299   1305     1  0.0000000  4.9162000  2
   1303   1301   1299   1305     1  0.0000000  0.6024960  3
   1301   1299   1305   1306     1  0.0000000  1.6038667  3
   1299   1305   1306   1307     1  0.0000000  1.0460000  3
   1299   1305   1306   1308     1  0.0000000  1.0460000  3
   1299   1305   1306   1309     1  333.9801429  -1.1598843  1
   1299   1305   1306   1309     1  2.9800013  4.4603365  2
   1299   1305   1306   1309     1  29.4700126  0.7878430  3
   1297   1287   1285   1301     1  0.0000000  0.0000000  2
   1293   1292   1296   1297     1  180.0000771  20.0832000  2
   1292   1296   1297   1298     1  180.0000771  16.7360000  2
   1290   1288   1287   1297     1  180.0000771  7.7404000  2
   1290   1292   1296   1297     1  180.0000771  20.0832000  2
   1288   1287   1285   1301     1  0.0000000  0.0000000  2
   1288   1287   1297   1296     1  180.0000771  6.0668000  2
   1288   1287   1297   1298     1  180.0000771  6.0668000  2
   1288   1290   1292   1293     1  180.0000771  10.6692000  2
   1288   1290   1292   1296     1  180.0000771  10.6692000  2
   1287   1285   1301   1299     1  0.0000000  0.6508444  3
   1287   1285   1301   1303     1  0.0000000  0.6508444  3
   1287   1288   1290   1292     1  180.0000771  27.8236000  2
   1287   1297   1296   1292     1  180.0000771  16.7360000  2
   1285   1284   1282   1299     1  180.0000771  0.4184000  2
   1285   1284   1282   1299     1  0.0000000  1.6024720  3
   1285   1287   1288   1290     1  180.0000771  7.7404000  2
   1285   1287   1297   1296     1  180.0000771  6.0668000  2
   1285   1287   1297   1298     1  180.0000771  6.0668000  2
   1285   1301   1299   1305     1  0.0000000  0.6508444  3
   1284   1282   1299   1301     1  0.0000000  0.6508444  3
   1284   1282   1299   1305     1  0.0000000  4.9162000  2
   1284   1282   1299   1305     1  0.0000000  0.6024960  3
   1284   1285   1287   1288     1  111.1800474  2.8397101  1
   1284   1285   1287   1288     1  340.2301459  5.0000223  2
   1284   1285   1287   1288     1  28.2000121  -3.7349982  3
   1284   1285   1287   1288     1  355.0801519  -1.2977304  4
   1284   1285   1287   1297     1  0.0000000  0.0000000  2
   1284   1285   1301   1299     1  0.0000000  0.6508444  3
   1284   1285   1301   1303     1  0.0000000  4.9162000  2
   1284   1285   1301   1303     1  0.0000000  0.6024960  3
   1282   1284   1285   1287     1  0.0000000  2.7196000  2
   1282   1284   1285   1287     1  0.0000000  1.6024720  3
   1282   1284   1285   1301     1  180.0000771  0.4184000  2
   1282   1284   1285   1301     1  0.0000000  1.6024720  3
   1282   1299   1301   1285     1  180.0000771  0.8368000  1
   1282   1299   1301   1285     1  180.0000771  1.0460000  2
   1282   1299   1301   1285     1  0.0000000  0.7531200  3
   1282   1299   1301   1303     1  0.0000000  0.6508444  3
   1282   1299   1305   1306     1  0.0000000  1.6038667  3
   1279   1282   1284   1285     1  180.0000771  0.4184000  2
   1279   1282   1284   1285     1  0.0000000  1.6024720  3
   1279   1282   1299   1301     1  180.0000771  0.8368000  1
   1279   1282   1299   1301     1  180.0000771  1.0460000  2
   1279   1282   1299   1301     1  0.0000000  0.7531200  3
   1279   1282   1299   1305     1  0.0000000  0.6508444  3
   1278   1279   1282   1284     1  0.0000000  0.6508444  3
   1278   1279   1282   1299     1  299.6901286  -1.5060182  1
   1278   1279   1282   1299     1  274.1001175  5.1381528  2
   1278   1279   1282   1299     1  342.2101465  3.2676873  3
   1277   1275   1278   1279     1  0.0000000  1.0460000  3
   1276   1275   1278   1279     1  0.0000000  1.0460000  3
   1275   1278   1279   1282     1  0.0000000  1.6038667  3
   1338   1339   1342   1343     1  31.7950936  0.7747973  1
   1338   1339   1342   1343     1  351.9597510  5.2573257  2
   1338   1339   1342   1343     1  357.2476330  1.4847259  3
   1336   1334   1332   1338     1  0.0000000  4.9162000  2
   1336   1334   1332   1338     1  0.0000000  0.6024960  3
   1334   1332   1338   1339     1  0.0000000  1.6038667  3
   1332   1338   1339   1340     1  0.0000000  1.0460000  3
   1332   1338   1339   1341     1  0.0000000  1.0460000  3
   1332   1338   1339   1342     1  333.9801429  -1.1598843  1
   1332   1338   1339   1342     1  2.9800013  4.4603365  2
   1332   1338   1339   1342     1  29.4700126  0.7878430  3
   1331   1318   1316   1334     1  0.0000000  0.0000000  2
   1327   1323   1322   1331     1  180.0000771  14.6440000  2
   1327   1328   1330   1331     1  180.0000771  28.4512000  2
   1324   1323   1322   1331     1  180.0000771  14.6440000  2
   1324   1323   1327   1328     1  180.0000771  20.0832000  2
   1323   1322   1331   1330     1  180.0000771  22.8028000  2
   1323   1327   1328   1330     1  180.0000771  28.4512000  2
   1322   1323   1327   1328     1  180.0000771  20.0832000  2
   1322   1331   1330   1328     1  180.0000771  17.3636000  2
   1321   1319   1318   1331     1  180.0000771  7.1128000  2
   1321   1322   1323   1324     1  180.0000771  14.6440000  2
   1321   1322   1323   1327     1  180.0000771  14.6440000  2
   1321   1322   1331   1330     1  180.0000771  22.8028000  2
   1319   1318   1316   1334     1  0.0000000  0.0000000  2
   1319   1318   1331   1322     1  180.0000771  6.9036000  2
   1319   1318   1331   1330     1  180.0000771  6.9036000  2
   1319   1321   1322   1323     1  180.0000771  10.6692000  2
   1319   1321   1322   1331     1  180.0000771  10.6692000  2
   1318   1316   1334   1332     1  0.0000000  0.6508444  3
   1318   1316   1334   1336     1  0.0000000  0.6508444  3
   1318   1319   1321   1322     1  180.0000771  41.8400000  2
   1318   1331   1322   1321     1  180.0000771  22.8028000  2
   1318   1331   1322   1323     1  180.0000771  22.8028000  2
   1318   1331   1330   1328     1  180.0000771  17.3636000  2
   1316   1315   1313   1332     1  180.0000771  0.4184000  2
   1316   1315   1313   1332     1  0.0000000  1.6024720  3
   1316   1318   1319   1321     1  180.0000771  7.1128000  2
   1316   1318   1331   1322     1  180.0000771  6.9036000  2
   1316   1318   1331   1330     1  180.0000771  6.9036000  2
   1316   1334   1332   1338     1  0.0000000  0.6508444  3
   1315   1313   1332   1334     1  0.0000000  0.6508444  3
   1315   1313   1332   1338     1  0.0000000  4.9162000  2
   1315   1313   1332   1338     1  0.0000000  0.6024960  3
   1315   1316   1318   1319     1  98.2900423  3.1435856  1
   1315   1316   1318   1319     1  328.5601409  4.5857268  2
   1315   1316   1318   1319     1  50.5200217  -1.7297325  3
   1315   1316   1318   1319     1  40.9900176  0.2709140  4
   1315   1316   1318   1331     1  0.0000000  0.0000000  2
   1315   1316   1334   1332     1  0.0000000  0.6508444  3
   1315   1316   1334   1336     1  0.0000000  4.9162000  2
   1315   1316   1334   1336     1  0.0000000  0.6024960  3
   1313   1315   1316   1318     1  0.0000000  2.7196000  2
   1313   1315   1316   1318     1  0.0000000  1.6024720  3
   1313   1315   1316   1334     1  180.0000771  0.4184000  2
   1313   1315   1316   1334     1  0.0000000  1.6024720  3
   1313   1332   1334   1316     1  180.0000771  0.8368000  1
   1313   1332   1334   1316     1  180.0000771  1.0460000  2
   1313   1332   1334   1316     1  0.0000000  0.7531200  3
   1313   1332   1334   1336     1  0.0000000  0.6508444  3
   1313   1332   1338   1339     1  0.0000000  1.6038667  3
   1310   1313   1315   1316     1  180.0000771  0.4184000  2
   1310   1313   1315   1316     1  0.0000000  1.6024720  3
   1310   1313   1332   1334     1  180.0000771  0.8368000  1
   1310   1313   1332   1334     1  180.0000771  1.0460000  2
   1310   1313   1332   1334     1  0.0000000  0.7531200  3
   1310   1313   1332   1338     1  0.0000000  0.6508444  3
   1309   1310   1313   1315     1  0.0000000  0.6508444  3
   1309   1310   1313   1332     1  299.6901286  -1.5060182  1
   1309   1310   1313   1332     1  274.1001175  5.1381528  2
   1309   1310   1313   1332     1  342.2101465  3.2676873  3
   1308   1306   1309   1310     1  0.0000000  1.0460000  3
   1307   1306   1309   1310     1  0.0000000  1.0460000  3
   1306   1309   1310   1313     1  0.0000000  1.6038667  3
   1369   1370   1373   1374     1  31.7950936  0.7747973  1
   1369   1370   1373   1374     1  351.9597510  5.2573257  2
   1369   1370   1373   1374     1  357.2476330  1.4847259  3
   1367   1365   1363   1369     1  0.0000000  4.9162000  2
   1367   1365   1363   1369     1  0.0000000  0.6024960  3
   1365   1363   1369   1370     1  0.0000000  1.6038667  3
   1363   1369   1370   1371     1  0.0000000  1.0460000  3
   1363   1369   1370   1372     1  0.0000000  1.0460000  3
   1363   1369   1370   1373     1  333.9801429  -1.1598843  1
   1363   1369   1370   1373     1  2.9800013  4.4603365  2
   1363   1369   1370   1373     1  29.4700126  0.7878430  3
   1361   1351   1349   1365     1  0.0000000  0.0000000  2
   1357   1356   1360   1361     1  180.0000771  20.0832000  2
   1356   1360   1361   1362     1  180.0000771  16.7360000  2
   1354   1352   1351   1361     1  180.0000771  7.7404000  2
   1354   1356   1360   1361     1  180.0000771  20.0832000  2
   1352   1351   1349   1365     1  0.0000000  0.0000000  2
   1352   1351   1361   1360     1  180.0000771  6.0668000  2
   1352   1351   1361   1362     1  180.0000771  6.0668000  2
   1352   1354   1356   1357     1  180.0000771  10.6692000  2
   1352   1354   1356   1360     1  180.0000771  10.6692000  2
   1351   1349   1365   1363     1  0.0000000  0.6508444  3
   1351   1349   1365   1367     1  0.0000000  0.6508444  3
   1351   1352   1354   1356     1  180.0000771  27.8236000  2
   1351   1361   1360   1356     1  180.0000771  16.7360000  2
   1349   1348   1346   1363     1  180.0000771  0.4184000  2
   1349   1348   1346   1363     1  0.0000000  1.6024720  3
   1349   1351   1352   1354     1  180.0000771  7.7404000  2
   1349   1351   1361   1360     1  180.0000771  6.0668000  2
   1349   1351   1361   1362     1  180.0000771  6.0668000  2
   1349   1365   1363   1369     1  0.0000000  0.6508444  3
   1348   1346   1363   1365     1  0.0000000  0.6508444  3
   1348   1346   1363   1369     1  0.0000000  4.9162000  2
   1348   1346   1363   1369     1  0.0000000  0.6024960  3
   1348   1349   1351   1352     1  111.1800474  2.8397101  1
   1348   1349   1351   1352     1  340.2301459  5.0000223  2
   1348   1349   1351   1352     1  28.2000121  -3.7349982  3
   1348   1349   1351   1352     1  355.0801519  -1.2977304  4
   1348   1349   1351   1361     1  0.0000000  0.0000000  2
   1348   1349   1365   1363     1  0.0000000  0.6508444  3
   1348   1349   1365   1367     1  0.0000000  4.9162000  2
   1348   1349   1365   1367     1  0.0000000  0.6024960  3
   1346   1348   1349   1351     1  0.0000000  2.7196000  2
   1346   1348   1349   1351     1  0.0000000  1.6024720  3
   1346   1348   1349   1365     1  180.0000771  0.4184000  2
   1346   1348   1349   1365     1  0.0000000  1.6024720  3
   1346   1363   1365   1349     1  180.0000771  0.8368000  1
   1346   1363   1365   1349     1  180.0000771  1.0460000  2
   1346   1363   1365   1349     1  0.0000000  0.7531200  3
   1346   1363   1365   1367     1  0.0000000  0.6508444  3
   1346   1363   1369   1370     1  0.0000000  1.6038667  3
   1343   1346   1348   1349     1  180.0000771  0.4184000  2
   1343   1346   1348   1349     1  0.0000000  1.6024720  3
   1343   1346   1363   1365     1  180.0000771  0.8368000  1
   1343   1346   1363   1365     1  180.0000771  1.0460000  2
   1343   1346   1363   1365     1  0.0000000  0.7531200  3
   1343   1346   1363   1369     1  0.0000000  0.6508444  3
   1342   1343   1346   1348     1  0.0000000  0.6508444  3
   1342   1343   1346   1363     1  299.6901286  -1.5060182  1
   1342   1343   1346   1363     1  274.1001175  5.1381528  2
   1342   1343   1346   1363     1  342.2101465  3.2676873  3
   1341   1339   1342   1343     1  0.0000000  1.0460000  3
   1340   1339   1342   1343     1  0.0000000  1.0460000  3
   1339   1342   1343   1346     1  0.0000000  1.6038667  3
   1400   1401   1404   1405     1  31.7950936  0.7747973  1
   1400   1401   1404   1405     1  351.9597510  5.2573257  2
   1400   1401   1404   1405     1  357.2476330  1.4847259  3
   1398   1396   1394   1400     1  0.0000000  4.9162000  2
   1398   1396   1394   1400     1  0.0000000  0.6024960  3
   1396   1394   1400   1401     1  0.0000000  1.6038667  3
   1394   1400   1401   1402     1  0.0000000  1.0460000  3
   1394   1400   1401   1403     1  0.0000000  1.0460000  3
   1394   1400   1401   1404     1  333.9801429  -1.1598843  1
   1394   1400   1401   1404     1  2.9800013  4.4603365  2
   1394   1400   1401   1404     1  29.4700126  0.7878430  3
   1392   1382   1380   1396     1  0.0000000  0.0000000  2
   1388   1387   1391   1392     1  180.0000771  20.0832000  2
   1387   1391   1392   1393     1  180.0000771  16.7360000  2
   1385   1383   1382   1392     1  180.0000771  7.7404000  2
   1385   1387   1391   1392     1  180.0000771  20.0832000  2
   1383   1382   1380   1396     1  0.0000000  0.0000000  2
   1383   1382   1392   1391     1  180.0000771  6.0668000  2
   1383   1382   1392   1393     1  180.0000771  6.0668000  2
   1383   1385   1387   1388     1  180.0000771  10.6692000  2
   1383   1385   1387   1391     1  180.0000771  10.6692000  2
   1382   1380   1396   1394     1  0.0000000  0.6508444  3
   1382   1380   1396   1398     1  0.0000000  0.6508444  3
   1382   1383   1385   1387     1  180.0000771  27.8236000  2
   1382   1392   1391   1387     1  180.0000771  16.7360000  2
   1380   1379   1377   1394     1  180.0000771  0.4184000  2
   1380   1379   1377   1394     1  0.0000000  1.6024720  3
   1380   1382   1383   1385     1  180.0000771  7.7404000  2
   1380   1382   1392   1391     1  180.0000771  6.0668000  2
   1380   1382   1392   1393     1  180.0000771  6.0668000  2
   1380   1396   1394   1400     1  0.0000000  0.6508444  3
   1379   1377   1394   1396     1  0.0000000  0.6508444  3
   1379   1377   1394   1400     1  0.0000000  4.9162000  2
   1379   1377   1394   1400     1  0.0000000  0.6024960  3
   1379   1380   1382   1383     1  111.1800474  2.8397101  1
   1379   1380   1382   1383     1  340.2301459  5.0000223  2
   1379   1380   1382   1383     1  28.2000121  -3.7349982  3
   1379   1380   1382   1383     1  355.0801519  -1.2977304  4
   1379   1380   1382   1392     1  0.0000000  0.0000000  2
   1379   1380   1396   1394     1  0.0000000  0.6508444  3
   1379   1380   1396   1398     1  0.0000000  4.9162000  2
   1379   1380   1396   1398     1  0.0000000  0.6024960  3
   1377   1379   1380   1382     1  0.0000000  2.7196000  2
   1377   1379   1380   1382     1  0.0000000  1.6024720  3
   1377   1379   1380   1396     1  180.0000771  0.4184000  2
   1377   1379   1380   1396     1  0.0000000  1.6024720  3
   1377   1394   1396   1380     1  180.0000771  0.8368000  1
   1377   1394   1396   1380     1  180.0000771  1.0460000  2
   1377   1394   1396   1380     1  0.0000000  0.7531200  3
   1377   1394   1396   1398     1  0.0000000  0.6508444  3
   1377   1394   1400   1401     1  0.0000000  1.6038667  3
   1374   1377   1379   1380     1  180.0000771  0.4184000  2
   1374   1377   1379   1380     1  0.0000000  1.6024720  3
   1374   1377   1394   1396     1  180.0000771  0.8368000  1
   1374   1377   1394   1396     1  180.0000771  1.0460000  2
   1374   1377   1394   1396     1  0.0000000  0.7531200  3
   1374   1377   1394   1400     1  0.0000000  0.6508444  3
   1373   1374   1377   1379     1  0.0000000  0.6508444  3
   1373   1374   1377   1394     1  299.6901286  -1.5060182  1
   1373   1374   1377   1394     1  274.1001175  5.1381528  2
   1373   1374   1377   1394     1  342.2101465  3.2676873  3
   1372   1370   1373   1374     1  0.0000000  1.0460000  3
   1371   1370   1373   1374     1  0.0000000  1.0460000  3
   1370   1373   1374   1377     1  0.0000000  1.6038667  3
   1434   1435   1438   1439     1  31.7950936  0.7747973  1
   1434   1435   1438   1439     1  351.9597510  5.2573257  2
   1434   1435   1438   1439     1  357.2476330  1.4847259  3
   1432   1430   1428   1434     1  0.0000000  4.9162000  2
   1432   1430   1428   1434     1  0.0000000  0.6024960  3
   1430   1428   1434   1435     1  0.0000000  1.6038667  3
   1428   1434   1435   1436     1  0.0000000  1.0460000  3
   1428   1434   1435   1437     1  0.0000000  1.0460000  3
   1428   1434   1435   1438     1  333.9801429  -1.1598843  1
   1428   1434   1435   1438     1  2.9800013  4.4603365  2
   1428   1434   1435   1438     1  29.4700126  0.7878430  3
   1427   1413   1411   1430     1  0.0000000  0.0000000  2
   1423   1422   1426   1427     1  180.0000771  20.0832000  2
   1420   1418   1417   1427     1  180.0000771  12.5520000  2
   1420   1422   1426   1427     1  180.0000771  20.0832000  2
   1419   1418   1417   1427     1  180.0000771  12.5520000  2
   1419   1418   1420   1422     1  180.0000771  5.6484000  2
   1418   1417   1427   1426     1  180.0000771  22.8028000  2
   1418   1420   1422   1423     1  180.0000771  6.2760000  2
   1418   1420   1422   1426     1  180.0000771  6.2760000  2
   1417   1418   1420   1422     1  180.0000771  5.6484000  2
   1417   1427   1426   1422     1  180.0000771  17.3636000  2
   1416   1414   1413   1427     1  180.0000771  7.1128000  2
   1416   1417   1418   1419     1  180.0000771  12.5520000  2
   1416   1417   1418   1420     1  180.0000771  12.5520000  2
   1416   1417   1427   1426     1  180.0000771  22.8028000  2
   1414   1413   1411   1430     1  0.0000000  0.0000000  2
   1414   1413   1427   1417     1  180.0000771  6.9036000  2
   1414   1413   1427   1426     1  180.0000771  6.9036000  2
   1414   1416   1417   1418     1  180.0000771  10.6692000  2
   1414   1416   1417   1427     1  180.0000771  10.6692000  2
   1413   1411   1430   1428     1  0.0000000  0.6508444  3
   1413   1411   1430   1432     1  0.0000000  0.6508444  3
   1413   1414   1416   1417     1  180.0000771  41.8400000  2
   1413   1427   1417   1416     1  180.0000771  22.8028000  2
   1413   1427   1417   1418     1  180.0000771  22.8028000  2
   1413   1427   1426   1422     1  180.0000771  17.3636000  2
   1411   1410   1408   1428     1  180.0000771  0.4184000  2
   1411   1410   1408   1428     1  0.0000000  1.6024720  3
   1411   1413   1414   1416     1  180.0000771  7.1128000  2
   1411   1413   1427   1417     1  180.0000771  6.9036000  2
   1411   1413   1427   1426     1  180.0000771  6.9036000  2
   1411   1430   1428   1434     1  0.0000000  0.6508444  3
   1410   1408   1428   1430     1  0.0000000  0.6508444  3
   1410   1408   1428   1434     1  0.0000000  4.9162000  2
   1410   1408   1428   1434     1  0.0000000  0.6024960  3
   1410   1411   1413   1414     1  287.1401229  -3.8169126  1
   1410   1411   1413   1414     1  331.9701422  5.7662424  2
   1410   1411   1413   1414     1  27.7600119  -1.7805138  3
   1410   1411   1413   1414     1  328.1301407  0.2514082  4
   1410   1411   1413   1427     1  0.0000000  0.0000000  2
   1410   1411   1430   1428     1  0.0000000  0.6508444  3
   1410   1411   1430   1432     1  0.0000000  4.9162000  2
   1410   1411   1430   1432     1  0.0000000  0.6024960  3
   1408   1410   1411   1413     1  0.0000000  2.7196000  2
   1408   1410   1411   1413     1  0.0000000  1.6024720  3
   1408   1410   1411   1430     1  180.0000771  0.4184000  2
   1408   1410   1411   1430     1  0.0000000  1.6024720  3
   1408   1428   1430   1411     1  180.0000771  0.8368000  1
   1408   1428   1430   1411     1  180.0000771  1.0460000  2
   1408   1428   1430   1411     1  0.0000000  0.7531200  3
   1408   1428   1430   1432     1  0.0000000  0.6508444  3
   1408   1428   1434   1435     1  0.0000000  1.6038667  3
   1405   1408   1410   1411     1  180.0000771  0.4184000  2
   1405   1408   1410   1411     1  0.0000000  1.6024720  3
   1405   1408   1428   1430     1  180.0000771  0.8368000  1
   1405   1408   1428   1430     1  180.0000771  1.0460000  2
   1405   1408   1428   1430     1  0.0000000  0.7531200  3
   1405   1408   1428   1434     1  0.0000000  0.6508444  3
   1404   1405   1408   1410     1  0.0000000  0.6508444  3
   1404   1405   1408   1428     1  299.6901286  -1.5060182  1
   1404   1405   1408   1428     1  274.1001175  5.1381528  2
   1404   1405   1408   1428     1  342.2101465  3.2676873  3
   1403   1401   1404   1405     1  0.0000000  1.0460000  3
   1402   1401   1404   1405     1  0.0000000  1.0460000  3
   1401   1404   1405   1408     1  0.0000000  1.6038667  3
   1464   1465   1468   1469     1  31.7950936  0.7747973  1
   1464   1465   1468   1469     1  351.9597510  5.2573257  2
   1464   1465   1468   1469     1  357.2476330  1.4847259  3
   1462   1460   1458   1464     1  0.0000000  4.9162000  2
   1462   1460   1458   1464     1  0.0000000  0.6024960  3
   1460   1458   1464   1465     1  0.0000000  1.6038667  3
   1458   1464   1465   1466     1  0.0000000  1.0460000  3
   1458   1464   1465   1467     1  0.0000000  1.0460000  3
   1458   1464   1465   1468     1  333.9801429  -1.1598843  1
   1458   1464   1465   1468     1  2.9800013  4.4603365  2
   1458   1464   1465   1468     1  29.4700126  0.7878430  3
   1456   1447   1445   1460     1  0.0000000  0.0000000  2
   1453   1452   1454   1456     1  180.0000771  5.6484000  2
   1452   1454   1456   1457     1  180.0000771  5.6484000  2
   1450   1448   1447   1456     1  180.0000771  7.7404000  2
   1450   1452   1454   1456     1  180.0000771  5.6484000  2
   1448   1447   1445   1460     1  0.0000000  0.0000000  2
   1448   1447   1456   1454     1  180.0000771  6.0668000  2
   1448   1447   1456   1457     1  180.0000771  6.0668000  2
   1448   1450   1452   1453     1  180.0000771  9.1002000  2
   1448   1450   1452   1453     1  0.0000000  1.2552000  3
   1448   1450   1452   1454     1  180.0000771  9.1002000  2
   1447   1445   1460   1458     1  0.0000000  0.6508444  3
   1447   1445   1460   1462     1  0.0000000  0.6508444  3
   1447   1448   1450   1452     1  180.0000771  27.8236000  2
   1447   1456   1454   1452     1  180.0000771  5.6484000  2
   1445   1444   1442   1458     1  180.0000771  0.4184000  2
   1445   1444   1442   1458     1  0.0000000  1.6024720  3
   1445   1447   1448   1450     1  180.0000771  7.7404000  2
   1445   1447   1456   1454     1  180.0000771  6.0668000  2
   1445   1447   1456   1457     1  180.0000771  6.0668000  2
   1445   1460   1458   1464     1  0.0000000  0.6508444  3
   1444   1442   1458   1460     1  0.0000000  0.6508444  3
   1444   1442   1458   1464     1  0.0000000  4.9162000  2
   1444   1442   1458   1464     1  0.0000000  0.6024960  3
   1444   1445   1447   1448     1  147.4600633  2.5402277  1
   1444   1445   1447   1448     1  346.4201487  5.4288069  2
   1444   1445   1447   1448     1  38.1300163  -2.0913808  3
   1444   1445   1447   1448     1  348.0001491  -0.6909207  4
   1444   1445   1447   1456     1  0.0000000  0.0000000  2
   1444   1445   1460   1458     1  0.0000000  0.6508444  3
   1444   1445   1460   1462     1  0.0000000  4.9162000  2
   1444   1445   1460   1462     1  0.0000000  0.6024960  3
   1442   1444   1445   1447     1  0.0000000  2.7196000  2
   1442   1444   1445   1447     1  0.0000000  1.6024720  3
   1442   1444   1445   1460     1  180.0000771  0.4184000  2
   1442   1444   1445   1460     1  0.0000000  1.6024720  3
   1442   1458   1460   1445     1  180.0000771  0.8368000  1
   1442   1458   1460   1445     1  180.0000771  1.0460000  2
   1442   1458   1460   1445     1  0.0000000  0.7531200  3
   1442   1458   1460   1462     1  0.0000000  0.6508444  3
   1442   1458   1464   1465     1  0.0000000  1.6038667  3
   1439   1442   1444   1445     1  180.0000771  0.4184000  2
   1439   1442   1444   1445     1  0.0000000  1.6024720  3
   1439   1442   1458   1460     1  180.0000771  0.8368000  1
   1439   1442   1458   1460     1  180.0000771  1.0460000  2
   1439   1442   1458   1460     1  0.0000000  0.7531200  3
   1439   1442   1458   1464     1  0.0000000  0.6508444  3
   1438   1439   1442   1444     1  0.0000000  0.6508444  3
   1438   1439   1442   1458     1  299.6901286  -1.5060182  1
   1438   1439   1442   1458     1  274.1001175  5.1381528  2
   1438   1439   1442   1458     1  342.2101465  3.2676873  3
   1437   1435   1438   1439     1  0.0000000  1.0460000  3
   1436   1435   1438   1439     1  0.0000000  1.0460000  3
   1435   1438   1439   1442     1  0.0000000  1.6038667  3
   1498   1499   1502   1503     1  31.7950936  0.7747973  1
   1498   1499   1502   1503     1  351.9597510  5.2573257  2
   1498   1499   1502   1503     1  357.2476330  1.4847259  3
   1496   1494   1492   1498     1  0.0000000  4.9162000  2
   1496   1494   1492   1498     1  0.0000000  0.6024960  3
   1494   1492   1498   1499     1  0.0000000  1.6038667  3
   1492   1498   1499   1500     1  0.0000000  1.0460000  3
   1492   1498   1499   1501     1  0.0000000  1.0460000  3
   1492   1498   1499   1502     1  333.9801429  -1.1598843  1
   1492   1498   1499   1502     1  2.9800013  4.4603365  2
   1492   1498   1499   1502     1  29.4700126  0.7878430  3
   1491   1477   1475   1494     1  0.0000000  0.0000000  2
   1487   1486   1490   1491     1  180.0000771  20.0832000  2
   1484   1482   1481   1491     1  180.0000771  12.5520000  2
   1484   1486   1490   1491     1  180.0000771  20.0832000  2
   1483   1482   1481   1491     1  180.0000771  12.5520000  2
   1483   1482   1484   1486     1  180.0000771  5.6484000  2
   1482   1481   1491   1490     1  180.0000771  22.8028000  2
   1482   1484   1486   1487     1  180.0000771  6.2760000  2
   1482   1484   1486   1490     1  180.0000771  6.2760000  2
   1481   1482   1484   1486     1  180.0000771  5.6484000  2
   1481   1491   1490   1486     1  180.0000771  17.3636000  2
   1480   1478   1477   1491     1  180.0000771  7.1128000  2
   1480   1481   1482   1483     1  180.0000771  12.5520000  2
   1480   1481   1482   1484     1  180.0000771  12.5520000  2
   1480   1481   1491   1490     1  180.0000771  22.8028000  2
   1478   1477   1475   1494     1  0.0000000  0.0000000  2
   1478   1477   1491   1481     1  180.0000771  6.9036000  2
   1478   1477   1491   1490     1  180.0000771  6.9036000  2
   1478   1480   1481   1482     1  180.0000771  10.6692000  2
   1478   1480   1481   1491     1  180.0000771  10.6692000  2
   1477   1475   1494   1492     1  0.0000000  0.6508444  3
   1477   1475   1494   1496     1  0.0000000  0.6508444  3
   1477   1478   1480   1481     1  180.0000771  41.8400000  2
   1477   1491   1481   1480     1  180.0000771  22.8028000  2
   1477   1491   1481   1482     1  180.0000771  22.8028000  2
   1477   1491   1490   1486     1  180.0000771  17.3636000  2
   1475   1474   1472   1492     1  180.0000771  0.4184000  2
   1475   1474   1472   1492     1  0.0000000  1.6024720  3
   1475   1477   1478   1480     1  180.0000771  7.1128000  2
   1475   1477   1491   1481     1  180.0000771  6.9036000  2
   1475   1477   1491   1490     1  180.0000771  6.9036000  2
   1475   1494   1492   1498     1  0.0000000  0.6508444  3
   1474   1472   1492   1494     1  0.0000000  0.6508444  3
   1474   1472   1492   1498     1  0.0000000  4.9162000  2
   1474   1472   1492   1498     1  0.0000000  0.6024960  3
   1474   1475   1477   1478     1  287.1401229  -3.8169126  1
   1474   1475   1477   1478     1  331.9701422  5.7662424  2
   1474   1475   1477   1478     1  27.7600119  -1.7805138  3
   1474   1475   1477   1478     1  328.1301407  0.2514082  4
   1474   1475   1477   1491     1  0.0000000  0.0000000  2
   1474   1475   1494   1492     1  0.0000000  0.6508444  3
   1474   1475   1494   1496     1  0.0000000  4.9162000  2
   1474   1475   1494   1496     1  0.0000000  0.6024960  3
   1472   1474   1475   1477     1  0.0000000  2.7196000  2
   1472   1474   1475   1477     1  0.0000000  1.6024720  3
   1472   1474   1475   1494     1  180.0000771  0.4184000  2
   1472   1474   1475   1494     1  0.0000000  1.6024720  3
   1472   1492   1494   1475     1  180.0000771  0.8368000  1
   1472   1492   1494   1475     1  180.0000771  1.0460000  2
   1472   1492   1494   1475     1  0.0000000  0.7531200  3
   1472   1492   1494   1496     1  0.0000000  0.6508444  3
   1472   1492   1498   1499     1  0.0000000  1.6038667  3
   1469   1472   1474   1475     1  180.0000771  0.4184000  2
   1469   1472   1474   1475     1  0.0000000  1.6024720  3
   1469   1472   1492   1494     1  180.0000771  0.8368000  1
   1469   1472   1492   1494     1  180.0000771  1.0460000  2
   1469   1472   1492   1494     1  0.0000000  0.7531200  3
   1469   1472   1492   1498     1  0.0000000  0.6508444  3
   1468   1469   1472   1474     1  0.0000000  0.6508444  3
   1468   1469   1472   1492     1  299.6901286  -1.5060182  1
   1468   1469   1472   1492     1  274.1001175  5.1381528  2
   1468   1469   1472   1492     1  342.2101465  3.2676873  3
   1467   1465   1468   1469     1  0.0000000  1.0460000  3
   1466   1465   1468   1469     1  0.0000000  1.0460000  3
   1465   1468   1469   1472     1  0.0000000  1.6038667  3
   1529   1530   1533   1534     1  31.7950936  0.7747973  1
   1529   1530   1533   1534     1  351.9597510  5.2573257  2
   1529   1530   1533   1534     1  357.2476330  1.4847259  3
   1527   1525   1523   1529     1  0.0000000  4.9162000  2
   1527   1525   1523   1529     1  0.0000000  0.6024960  3
   1525   1523   1529   1530     1  0.0000000  1.6038667  3
   1523   1529   1530   1531     1  0.0000000  1.0460000  3
   1523   1529   1530   1532     1  0.0000000  1.0460000  3
   1523   1529   1530   1533     1  333.9801429  -1.1598843  1
   1523   1529   1530   1533     1  2.9800013  4.4603365  2
   1523   1529   1530   1533     1  29.4700126  0.7878430  3
   1521   1511   1509   1525     1  0.0000000  0.0000000  2
   1517   1516   1520   1521     1  180.0000771  20.0832000  2
   1516   1520   1521   1522     1  180.0000771  16.7360000  2
   1514   1512   1511   1521     1  180.0000771  7.7404000  2
   1514   1516   1520   1521     1  180.0000771  20.0832000  2
   1512   1511   1509   1525     1  0.0000000  0.0000000  2
   1512   1511   1521   1520     1  180.0000771  6.0668000  2
   1512   1511   1521   1522     1  180.0000771  6.0668000  2
   1512   1514   1516   1517     1  180.0000771  10.6692000  2
   1512   1514   1516   1520     1  180.0000771  10.6692000  2
   1511   1509   1525   1523     1  0.0000000  0.6508444  3
   1511   1509   1525   1527     1  0.0000000  0.6508444  3
   1511   1512   1514   1516     1  180.0000771  27.8236000  2
   1511   1521   1520   1516     1  180.0000771  16.7360000  2
   1509   1508   1506   1523     1  180.0000771  0.4184000  2
   1509   1508   1506   1523     1  0.0000000  1.6024720  3
   1509   1511   1512   1514     1  180.0000771  7.7404000  2
   1509   1511   1521   1520     1  180.0000771  6.0668000  2
   1509   1511   1521   1522     1  180.0000771  6.0668000  2
   1509   1525   1523   1529     1  0.0000000  0.6508444  3
   1508   1506   1523   1525     1  0.0000000  0.6508444  3
   1508   1506   1523   1529     1  0.0000000  4.9162000  2
   1508   1506   1523   1529     1  0.0000000  0.6024960  3
   1508   1509   1511   1512     1  111.1800474  2.8397101  1
   1508   1509   1511   1512     1  340.2301459  5.0000223  2
   1508   1509   1511   1512     1  28.2000121  -3.7349982  3
   1508   1509   1511   1512     1  355.0801519  -1.2977304  4
   1508   1509   1511   1521     1  0.0000000  0.0000000  2
   1508   1509   1525   1523     1  0.0000000  0.6508444  3
   1508   1509   1525   1527     1  0.0000000  4.9162000  2
   1508   1509   1525   1527     1  0.0000000  0.6024960  3
   1506   1508   1509   1511     1  0.0000000  2.7196000  2
   1506   1508   1509   1511     1  0.0000000  1.6024720  3
   1506   1508   1509   1525     1  180.0000771  0.4184000  2
   1506   1508   1509   1525     1  0.0000000  1.6024720  3
   1506   1523   1525   1509     1  180.0000771  0.8368000  1
   1506   1523   1525   1509     1  180.0000771  1.0460000  2
   1506   1523   1525   1509     1  0.0000000  0.7531200  3
   1506   1523   1525   1527     1  0.0000000  0.6508444  3
   1506   1523   1529   1530     1  0.0000000  1.6038667  3
   1503   1506   1508   1509     1  180.0000771  0.4184000  2
   1503   1506   1508   1509     1  0.0000000  1.6024720  3
   1503   1506   1523   1525     1  180.0000771  0.8368000  1
   1503   1506   1523   1525     1  180.0000771  1.0460000  2
   1503   1506   1523   1525     1  0.0000000  0.7531200  3
   1503   1506   1523   1529     1  0.0000000  0.6508444  3
   1502   1503   1506   1508     1  0.0000000  0.6508444  3
   1502   1503   1506   1523     1  299.6901286  -1.5060182  1
   1502   1503   1506   1523     1  274.1001175  5.1381528  2
   1502   1503   1506   1523     1  342.2101465  3.2676873  3
   1501   1499   1502   1503     1  0.0000000  1.0460000  3
   1500   1499   1502   1503     1  0.0000000  1.0460000  3
   1499   1502   1503   1506     1  0.0000000  1.6038667  3
   1563   1564   1567   1568     1  31.7950936  0.7747973  1
   1563   1564   1567   1568     1  351.9597510  5.2573257  2
   1563   1564   1567   1568     1  357.2476330  1.4847259  3
   1561   1559   1557   1563     1  0.0000000  4.9162000  2
   1561   1559   1557   1563     1  0.0000000  0.6024960  3
   1559   1557   1563   1564     1  0.0000000  1.6038667  3
   1557   1563   1564   1565     1  0.0000000  1.0460000  3
   1557   1563   1564   1566     1  0.0000000  1.0460000  3
   1557   1563   1564   1567     1  333.9801429  -1.1598843  1
   1557   1563   1564   1567     1  2.9800013  4.4603365  2
   1557   1563   1564   1567     1  29.4700126  0.7878430  3
   1556   1542   1540   1559     1  0.0000000  0.0000000  2
   1552   1551   1555   1556     1  180.0000771  20.0832000  2
   1549   1547   1546   1556     1  180.0000771  12.5520000  2
   1549   1551   1555   1556     1  180.0000771  20.0832000  2
   1548   1547   1546   1556     1  180.0000771  12.5520000  2
   1548   1547   1549   1551     1  180.0000771  5.6484000  2
   1547   1546   1556   1555     1  180.0000771  22.8028000  2
   1547   1549   1551   1552     1  180.0000771  6.2760000  2
   1547   1549   1551   1555     1  180.0000771  6.2760000  2
   1546   1547   1549   1551     1  180.0000771  5.6484000  2
   1546   1556   1555   1551     1  180.0000771  17.3636000  2
   1545   1543   1542   1556     1  180.0000771  7.1128000  2
   1545   1546   1547   1548     1  180.0000771  12.5520000  2
   1545   1546   1547   1549     1  180.0000771  12.5520000  2
   1545   1546   1556   1555     1  180.0000771  22.8028000  2
   1543   1542   1540   1559     1  0.0000000  0.0000000  2
   1543   1542   1556   1546     1  180.0000771  6.9036000  2
   1543   1542   1556   1555     1  180.0000771  6.9036000  2
   1543   1545   1546   1547     1  180.0000771  10.6692000  2
   1543   1545   1546   1556     1  180.0000771  10.6692000  2
   1542   1540   1559   1557     1  0.0000000  0.6508444  3
   1542   1540   1559   1561     1  0.0000000  0.6508444  3
   1542   1543   1545   1546     1  180.0000771  41.8400000  2
   1542   1556   1546   1545     1  180.0000771  22.8028000  2
   1542   1556   1546   1547     1  180.0000771  22.8028000  2
   1542   1556   1555   1551     1  180.0000771  17.3636000  2
   1540   1539   1537   1557     1  180.0000771  0.4184000  2
   1540   1539   1537   1557     1  0.0000000  1.6024720  3
   1540   1542   1543   1545     1  180.0000771  7.1128000  2
   1540   1542   1556   1546     1  180.0000771  6.9036000  2
   1540   1542   1556   1555     1  180.0000771  6.9036000  2
   1540   1559   1557   1563     1  0.0000000  0.6508444  3
   1539   1537   1557   1559     1  0.0000000  0.6508444  3
   1539   1537   1557   1563     1  0.0000000  4.9162000  2
   1539   1537   1557   1563     1  0.0000000  0.6024960  3
   1539   1540   1542   1543     1  287.1401229  -3.8169126  1
   1539   1540   1542   1543     1  331.9701422  5.7662424  2
   1539   1540   1542   1543     1  27.7600119  -1.7805138  3
   1539   1540   1542   1543     1  328.1301407  0.2514082  4
   1539   1540   1542   1556     1  0.0000000  0.0000000  2
   1539   1540   1559   1557     1  0.0000000  0.6508444  3
   1539   1540   1559   1561     1  0.0000000  4.9162000  2
   1539   1540   1559   1561     1  0.0000000  0.6024960  3
   1537   1539   1540   1542     1  0.0000000  2.7196000  2
   1537   1539   1540   1542     1  0.0000000  1.6024720  3
   1537   1539   1540   1559     1  180.0000771  0.4184000  2
   1537   1539   1540   1559     1  0.0000000  1.6024720  3
   1537   1557   1559   1540     1  180.0000771  0.8368000  1
   1537   1557   1559   1540     1  180.0000771  1.0460000  2
   1537   1557   1559   1540     1  0.0000000  0.7531200  3
   1537   1557   1559   1561     1  0.0000000  0.6508444  3
   1537   1557   1563   1564     1  0.0000000  1.6038667  3
   1534   1537   1539   1540     1  180.0000771  0.4184000  2
   1534   1537   1539   1540     1  0.0000000  1.6024720  3
   1534   1537   1557   1559     1  180.0000771  0.8368000  1
   1534   1537   1557   1559     1  180.0000771  1.0460000  2
   1534   1537   1557   1559     1  0.0000000  0.7531200  3
   1534   1537   1557   1563     1  0.0000000  0.6508444  3
   1533   1534   1537   1539     1  0.0000000  0.6508444  3
   1533   1534   1537   1557     1  299.6901286  -1.5060182  1
   1533   1534   1537   1557     1  274.1001175  5.1381528  2
   1533   1534   1537   1557     1  342.2101465  3.2676873  3
   1532   1530   1533   1534     1  0.0000000  1.0460000  3
   1531   1530   1533   1534     1  0.0000000  1.0460000  3
   1530   1533   1534   1537     1  0.0000000  1.6038667  3
   1597   1598   1601   1602     1  31.7950936  0.7747973  1
   1597   1598   1601   1602     1  351.9597510  5.2573257  2
   1597   1598   1601   1602     1  357.2476330  1.4847259  3
   1595   1593   1591   1597     1  0.0000000  4.9162000  2
   1595   1593   1591   1597     1  0.0000000  0.6024960  3
   1593   1591   1597   1598     1  0.0000000  1.6038667  3
   1591   1597   1598   1599     1  0.0000000  1.0460000  3
   1591   1597   1598   1600     1  0.0000000  1.0460000  3
   1591   1597   1598   1601     1  333.9801429  -1.1598843  1
   1591   1597   1598   1601     1  2.9800013  4.4603365  2
   1591   1597   1598   1601     1  29.4700126  0.7878430  3
   1590   1576   1574   1593     1  0.0000000  0.0000000  2
   1586   1585   1589   1590     1  180.0000771  20.0832000  2
   1583   1581   1580   1590     1  180.0000771  12.5520000  2
   1583   1585   1589   1590     1  180.0000771  20.0832000  2
   1582   1581   1580   1590     1  180.0000771  12.5520000  2
   1582   1581   1583   1585     1  180.0000771  5.6484000  2
   1581   1580   1590   1589     1  180.0000771  22.8028000  2
   1581   1583   1585   1586     1  180.0000771  6.2760000  2
   1581   1583   1585   1589     1  180.0000771  6.2760000  2
   1580   1581   1583   1585     1  180.0000771  5.6484000  2
   1580   1590   1589   1585     1  180.0000771  17.3636000  2
   1579   1577   1576   1590     1  180.0000771  7.1128000  2
   1579   1580   1581   1582     1  180.0000771  12.5520000  2
   1579   1580   1581   1583     1  180.0000771  12.5520000  2
   1579   1580   1590   1589     1  180.0000771  22.8028000  2
   1577   1576   1574   1593     1  0.0000000  0.0000000  2
   1577   1576   1590   1580     1  180.0000771  6.9036000  2
   1577   1576   1590   1589     1  180.0000771  6.9036000  2
   1577   1579   1580   1581     1  180.0000771  10.6692000  2
   1577   1579   1580   1590     1  180.0000771  10.6692000  2
   1576   1574   1593   1591     1  0.0000000  0.6508444  3
   1576   1574   1593   1595     1  0.0000000  0.6508444  3
   1576   1577   1579   1580     1  180.0000771  41.8400000  2
   1576   1590   1580   1579     1  180.0000771  22.8028000  2
   1576   1590   1580   1581     1  180.0000771  22.8028000  2
   1576   1590   1589   1585     1  180.0000771  17.3636000  2
   1574   1573   1571   1591     1  180.0000771  0.4184000  2
   1574   1573   1571   1591     1  0.0000000  1.6024720  3
   1574   1576   1577   1579     1  180.0000771  7.1128000  2
   1574   1576   1590   1580     1  180.0000771  6.9036000  2
   1574   1576   1590   1589     1  180.0000771  6.9036000  2
   1574   1593   1591   1597     1  0.0000000  0.6508444  3
   1573   1571   1591   1593     1  0.0000000  0.6508444  3
   1573   1571   1591   1597     1  0.0000000  4.9162000  2
   1573   1571   1591   1597     1  0.0000000  0.6024960  3
   1573   1574   1576   1577     1  287.1401229  -3.8169126  1
   1573   1574   1576   1577     1  331.9701422  5.7662424  2
   1573   1574   1576   1577     1  27.7600119  -1.7805138  3
   1573   1574   1576   1577     1  328.1301407  0.2514082  4
   1573   1574   1576   1590     1  0.0000000  0.0000000  2
   1573   1574   1593   1591     1  0.0000000  0.6508444  3
   1573   1574   1593   1595     1  0.0000000  4.9162000  2
   1573   1574   1593   1595     1  0.0000000  0.6024960  3
   1571   1573   1574   1576     1  0.0000000  2.7196000  2
   1571   1573   1574   1576     1  0.0000000  1.6024720  3
   1571   1573   1574   1593     1  180.0000771  0.4184000  2
   1571   1573   1574   1593     1  0.0000000  1.6024720  3
   1571   1591   1593   1574     1  180.0000771  0.8368000  1
   1571   1591   1593   1574     1  180.0000771  1.0460000  2
   1571   1591   1593   1574     1  0.0000000  0.7531200  3
   1571   1591   1593   1595     1  0.0000000  0.6508444  3
   1571   1591   1597   1598     1  0.0000000  1.6038667  3
   1568   1571   1573   1574     1  180.0000771  0.4184000  2
   1568   1571   1573   1574     1  0.0000000  1.6024720  3
   1568   1571   1591   1593     1  180.0000771  0.8368000  1
   1568   1571   1591   1593     1  180.0000771  1.0460000  2
   1568   1571   1591   1593     1  0.0000000  0.7531200  3
   1568   1571   1591   1597     1  0.0000000  0.6508444  3
   1567   1568   1571   1573     1  0.0000000  0.6508444  3
   1567   1568   1571   1591     1  299.6901286  -1.5060182  1
   1567   1568   1571   1591     1  274.1001175  5.1381528  2
   1567   1568   1571   1591     1  342.2101465  3.2676873  3
   1566   1564   1567   1568     1  0.0000000  1.0460000  3
   1565   1564   1567   1568     1  0.0000000  1.0460000  3
   1564   1567   1568   1571     1  0.0000000  1.6038667  3
   1628   1629   1632   1633     1  31.7950936  0.7747973  1
   1628   1629   1632   1633     1  351.9597510  5.2573257  2
   1628   1629   1632   1633     1  357.2476330  1.4847259  3
   1626   1624   1622   1628     1  0.0000000  4.9162000  2
   1626   1624   1622   1628     1  0.0000000  0.6024960  3
   1624   1622   1628   1629     1  0.0000000  1.6038667  3
   1622   1628   1629   1630     1  0.0000000  1.0460000  3
   1622   1628   1629   1631     1  0.0000000  1.0460000  3
   1622   1628   1629   1632     1  333.9801429  -1.1598843  1
   1622   1628   1629   1632     1  2.9800013  4.4603365  2
   1622   1628   1629   1632     1  29.4700126  0.7878430  3
   1620   1610   1608   1624     1  0.0000000  0.0000000  2
   1616   1615   1619   1620     1  180.0000771  20.0832000  2
   1615   1619   1620   1621     1  180.0000771  16.7360000  2
   1613   1611   1610   1620     1  180.0000771  7.7404000  2
   1613   1615   1619   1620     1  180.0000771  20.0832000  2
   1611   1610   1608   1624     1  0.0000000  0.0000000  2
   1611   1610   1620   1619     1  180.0000771  6.0668000  2
   1611   1610   1620   1621     1  180.0000771  6.0668000  2
   1611   1613   1615   1616     1  180.0000771  10.6692000  2
   1611   1613   1615   1619     1  180.0000771  10.6692000  2
   1610   1608   1624   1622     1  0.0000000  0.6508444  3
   1610   1608   1624   1626     1  0.0000000  0.6508444  3
   1610   1611   1613   1615     1  180.0000771  27.8236000  2
   1610   1620   1619   1615     1  180.0000771  16.7360000  2
   1608   1607   1605   1622     1  180.0000771  0.4184000  2
   1608   1607   1605   1622     1  0.0000000  1.6024720  3
   1608   1610   1611   1613     1  180.0000771  7.7404000  2
   1608   1610   1620   1619     1  180.0000771  6.0668000  2
   1608   1610   1620   1621     1  180.0000771  6.0668000  2
   1608   1624   1622   1628     1  0.0000000  0.6508444  3
   1607   1605   1622   1624     1  0.0000000  0.6508444  3
   1607   1605   1622   1628     1  0.0000000  4.9162000  2
   1607   1605   1622   1628     1  0.0000000  0.6024960  3
   1607   1608   1610   1611     1  111.1800474  2.8397101  1
   1607   1608   1610   1611     1  340.2301459  5.0000223  2
   1607   1608   1610   1611     1  28.2000121  -3.7349982  3
   1607   1608   1610   1611     1  355.0801519  -1.2977304  4
   1607   1608   1610   1620     1  0.0000000  0.0000000  2
   1607   1608   1624   1622     1  0.0000000  0.6508444  3
   1607   1608   1624   1626     1  0.0000000  4.9162000  2
   1607   1608   1624   1626     1  0.0000000  0.6024960  3
   1605   1607   1608   1610     1  0.0000000  2.7196000  2
   1605   1607   1608   1610     1  0.0000000  1.6024720  3
   1605   1607   1608   1624     1  180.0000771  0.4184000  2
   1605   1607   1608   1624     1  0.0000000  1.6024720  3
   1605   1622   1624   1608     1  180.0000771  0.8368000  1
   1605   1622   1624   1608     1  180.0000771  1.0460000  2
   1605   1622   1624   1608     1  0.0000000  0.7531200  3
   1605   1622   1624   1626     1  0.0000000  0.6508444  3
   1605   1622   1628   1629     1  0.0000000  1.6038667  3
   1602   1605   1607   1608     1  180.0000771  0.4184000  2
   1602   1605   1607   1608     1  0.0000000  1.6024720  3
   1602   1605   1622   1624     1  180.0000771  0.8368000  1
   1602   1605   1622   1624     1  180.0000771  1.0460000  2
   1602   1605   1622   1624     1  0.0000000  0.7531200  3
   1602   1605   1622   1628     1  0.0000000  0.6508444  3
   1601   1602   1605   1607     1  0.0000000  0.6508444  3
   1601   1602   1605   1622     1  299.6901286  -1.5060182  1
   1601   1602   1605   1622     1  274.1001175  5.1381528  2
   1601   1602   1605   1622     1  342.2101465  3.2676873  3
   1600   1598   1601   1602     1  0.0000000  1.0460000  3
   1599   1598   1601   1602     1  0.0000000  1.0460000  3
   1598   1601   1602   1605     1  0.0000000  1.6038667  3
   1661   1662   1665   1666     1  31.7950936  0.7747973  1
   1661   1662   1665   1666     1  351.9597510  5.2573257  2
   1661   1662   1665   1666     1  357.2476330  1.4847259  3
   1659   1657   1655   1661     1  0.0000000  4.9162000  2
   1659   1657   1655   1661     1  0.0000000  0.6024960  3
   1657   1655   1661   1662     1  0.0000000  1.6038667  3
   1655   1661   1662   1663     1  0.0000000  1.0460000  3
   1655   1661   1662   1664     1  0.0000000  1.0460000  3
   1655   1661   1662   1665     1  333.9801429  -1.1598843  1
   1655   1661   1662   1665     1  2.9800013  4.4603365  2
   1655   1661   1662   1665     1  29.4700126  0.7878430  3
   1654   1641   1639   1657     1  0.0000000  0.0000000  2
   1650   1646   1645   1654     1  180.0000771  14.6440000  2
   1650   1651   1653   1654     1  180.0000771  28.4512000  2
   1647   1646   1645   1654     1  180.0000771  14.6440000  2
   1647   1646   1650   1651     1  180.0000771  20.0832000  2
   1646   1645   1654   1653     1  180.0000771  22.8028000  2
   1646   1650   1651   1653     1  180.0000771  28.4512000  2
   1645   1646   1650   1651     1  180.0000771  20.0832000  2
   1645   1654   1653   1651     1  180.0000771  17.3636000  2
   1644   1642   1641   1654     1  180.0000771  7.1128000  2
   1644   1645   1646   1647     1  180.0000771  14.6440000  2
   1644   1645   1646   1650     1  180.0000771  14.6440000  2
   1644   1645   1654   1653     1  180.0000771  22.8028000  2
   1642   1641   1639   1657     1  0.0000000  0.0000000  2
   1642   1641   1654   1645     1  180.0000771  6.9036000  2
   1642   1641   1654   1653     1  180.0000771  6.9036000  2
   1642   1644   1645   1646     1  180.0000771  10.6692000  2
   1642   1644   1645   1654     1  180.0000771  10.6692000  2
   1641   1639   1657   1655     1  0.0000000  0.6508444  3
   1641   1639   1657   1659     1  0.0000000  0.6508444  3
   1641   1642   1644   1645     1  180.0000771  41.8400000  2
   1641   1654   1645   1644     1  180.0000771  22.8028000  2
   1641   1654   1645   1646     1  180.0000771  22.8028000  2
   1641   1654   1653   1651     1  180.0000771  17.3636000  2
   1639   1638   1636   1655     1  180.0000771  0.4184000  2
   1639   1638   1636   1655     1  0.0000000  1.6024720  3
   1639   1641   1642   1644     1  180.0000771  7.1128000  2
   1639   1641   1654   1645     1  180.0000771  6.9036000  2
   1639   1641   1654   1653     1  180.0000771  6.9036000  2
   1639   1657   1655   1661     1  0.0000000  0.6508444  3
   1638   1636   1655   1657     1  0.0000000  0.6508444  3
   1638   1636   1655   1661     1  0.0000000  4.9162000  2
   1638   1636   1655   1661     1  0.0000000  0.6024960  3
   1638   1639   1641   1642     1  98.2900423  3.1435856  1
   1638   1639   1641   1642     1  328.5601409  4.5857268  2
   1638   1639   1641   1642     1  50.5200217  -1.7297325  3
   1638   1639   1641   1642     1  40.9900176  0.2709140  4
   1638   1639   1641   1654     1  0.0000000  0.0000000  2
   1638   1639   1657   1655     1  0.0000000  0.6508444  3
   1638   1639   1657   1659     1  0.0000000  4.9162000  2
   1638   1639   1657   1659     1  0.0000000  0.6024960  3
   1636   1638   1639   1641     1  0.0000000  2.7196000  2
   1636   1638   1639   1641     1  0.0000000  1.6024720  3
   1636   1638   1639   1657     1  180.0000771  0.4184000  2
   1636   1638   1639   1657     1  0.0000000  1.6024720  3
   1636   1655   1657   1639     1  180.0000771  0.8368000  1
   1636   1655   1657   1639     1  180.0000771  1.0460000  2
   1636   1655   1657   1639     1  0.0000000  0.7531200  3
   1636   1655   1657   1659     1  0.0000000  0.6508444  3
   1636   1655   1661   1662     1  0.0000000  1.6038667  3
   1633   1636   1638   1639     1  180.0000771  0.4184000  2
   1633   1636   1638   1639     1  0.0000000  1.6024720  3
   1633   1636   1655   1657     1  180.0000771  0.8368000  1
   1633   1636   1655   1657     1  180.0000771  1.0460000  2
   1633   1636   1655   1657     1  0.0000000  0.7531200  3
   1633   1636   1655   1661     1  0.0000000  0.6508444  3
   1632   1633   1636   1638     1  0.0000000  0.6508444  3
   1632   1633   1636   1655     1  299.6901286  -1.5060182  1
   1632   1633   1636   1655     1  274.1001175  5.1381528  2
   1632   1633   1636   1655     1  342.2101465  3.2676873  3
   1631   1629   1632   1633     1  0.0000000  1.0460000  3
   1630   1629   1632   1633     1  0.0000000  1.0460000  3
   1629   1632   1633   1636     1  0.0000000  1.6038667  3
   1692   1693   1696   1697     1  31.7950936  0.7747973  1
   1692   1693   1696   1697     1  351.9597510  5.2573257  2
   1692   1693   1696   1697     1  357.2476330  1.4847259  3
   1690   1688   1686   1692     1  0.0000000  4.9162000  2
   1690   1688   1686   1692     1  0.0000000  0.6024960  3
   1688   1686   1692   1693     1  0.0000000  1.6038667  3
   1686   1692   1693   1694     1  0.0000000  1.0460000  3
   1686   1692   1693   1695     1  0.0000000  1.0460000  3
   1686   1692   1693   1696     1  333.9801429  -1.1598843  1
   1686   1692   1693   1696     1  2.9800013  4.4603365  2
   1686   1692   1693   1696     1  29.4700126  0.7878430  3
   1684   1674   1672   1688     1  0.0000000  0.0000000  2
   1680   1679   1683   1684     1  180.0000771  20.0832000  2
   1679   1683   1684   1685     1  180.0000771  16.7360000  2
   1677   1675   1674   1684     1  180.0000771  7.7404000  2
   1677   1679   1683   1684     1  180.0000771  20.0832000  2
   1675   1674   1672   1688     1  0.0000000  0.0000000  2
   1675   1674   1684   1683     1  180.0000771  6.0668000  2
   1675   1674   1684   1685     1  180.0000771  6.0668000  2
   1675   1677   1679   1680     1  180.0000771  10.6692000  2
   1675   1677   1679   1683     1  180.0000771  10.6692000  2
   1674   1672   1688   1686     1  0.0000000  0.6508444  3
   1674   1672   1688   1690     1  0.0000000  0.6508444  3
   1674   1675   1677   1679     1  180.0000771  27.8236000  2
   1674   1684   1683   1679     1  180.0000771  16.7360000  2
   1672   1671   1669   1686     1  180.0000771  0.4184000  2
   1672   1671   1669   1686     1  0.0000000  1.6024720  3
   1672   1674   1675   1677     1  180.0000771  7.7404000  2
   1672   1674   1684   1683     1  180.0000771  6.0668000  2
   1672   1674   1684   1685     1  180.0000771  6.0668000  2
   1672   1688   1686   1692     1  0.0000000  0.6508444  3
   1671   1669   1686   1688     1  0.0000000  0.6508444  3
   1671   1669   1686   1692     1  0.0000000  4.9162000  2
   1671   1669   1686   1692     1  0.0000000  0.6024960  3
   1671   1672   1674   1675     1  111.1800474  2.8397101  1
   1671   1672   1674   1675     1  340.2301459  5.0000223  2
   1671   1672   1674   1675     1  28.2000121  -3.7349982  3
   1671   1672   1674   1675     1  355.0801519  -1.2977304  4
   1671   1672   1674   1684     1  0.0000000  0.0000000  2
   1671   1672   1688   1686     1  0.0000000  0.6508444  3
   1671   1672   1688   1690     1  0.0000000  4.9162000  2
   1671   1672   1688   1690     1  0.0000000  0.6024960  3
   1669   1671   1672   1674     1  0.0000000  2.7196000  2
   1669   1671   1672   1674     1  0.0000000  1.6024720  3
   1669   1671   1672   1688     1  180.0000771  0.4184000  2
   1669   1671   1672   1688     1  0.0000000  1.6024720  3
   1669   1686   1688   1672     1  180.0000771  0.8368000  1
   1669   1686   1688   1672     1  180.0000771  1.0460000  2
   1669   1686   1688   1672     1  0.0000000  0.7531200  3
   1669   1686   1688   1690     1  0.0000000  0.6508444  3
   1669   1686   1692   1693     1  0.0000000  1.6038667  3
   1666   1669   1671   1672     1  180.0000771  0.4184000  2
   1666   1669   1671   1672     1  0.0000000  1.6024720  3
   1666   1669   1686   1688     1  180.0000771  0.8368000  1
   1666   1669   1686   1688     1  180.0000771  1.0460000  2
   1666   1669   1686   1688     1  0.0000000  0.7531200  3
   1666   1669   1686   1692     1  0.0000000  0.6508444  3
   1665   1666   1669   1671     1  0.0000000  0.6508444  3
   1665   1666   1669   1686     1  299.6901286  -1.5060182  1
   1665   1666   1669   1686     1  274.1001175  5.1381528  2
   1665   1666   1669   1686     1  342.2101465  3.2676873  3
   1664   1662   1665   1666     1  0.0000000  1.0460000  3
   1663   1662   1665   1666     1  0.0000000  1.0460000  3
   1662   1665   1666   1669     1  0.0000000  1.6038667  3
   1725   1726   1729   1730     1  31.7950936  0.7747973  1
   1725   1726   1729   1730     1  351.9597510  5.2573257  2
   1725   1726   1729   1730     1  357.2476330  1.4847259  3
   1723   1721   1719   1725     1  0.0000000  4.9162000  2
   1723   1721   1719   1725     1  0.0000000  0.6024960  3
   1721   1719   1725   1726     1  0.0000000  1.6038667  3
   1719   1725   1726   1727     1  0.0000000  1.0460000  3
   1719   1725   1726   1728     1  0.0000000  1.0460000  3
   1719   1725   1726   1729     1  333.9801429  -1.1598843  1
   1719   1725   1726   1729     1  2.9800013  4.4603365  2
   1719   1725   1726   1729     1  29.4700126  0.7878430  3
   1718   1705   1703   1721     1  0.0000000  0.0000000  2
   1714   1710   1709   1718     1  180.0000771  14.6440000  2
   1714   1715   1717   1718     1  180.0000771  28.4512000  2
   1711   1710   1709   1718     1  180.0000771  14.6440000  2
   1711   1710   1714   1715     1  180.0000771  20.0832000  2
   1710   1709   1718   1717     1  180.0000771  22.8028000  2
   1710   1714   1715   1717     1  180.0000771  28.4512000  2
   1709   1710   1714   1715     1  180.0000771  20.0832000  2
   1709   1718   1717   1715     1  180.0000771  17.3636000  2
   1708   1706   1705   1718     1  180.0000771  7.1128000  2
   1708   1709   1710   1711     1  180.0000771  14.6440000  2
   1708   1709   1710   1714     1  180.0000771  14.6440000  2
   1708   1709   1718   1717     1  180.0000771  22.8028000  2
   1706   1705   1703   1721     1  0.0000000  0.0000000  2
   1706   1705   1718   1709     1  180.0000771  6.9036000  2
   1706   1705   1718   1717     1  180.0000771  6.9036000  2
   1706   1708   1709   1710     1  180.0000771  10.6692000  2
   1706   1708   1709   1718     1  180.0000771  10.6692000  2
   1705   1703   1721   1719     1  0.0000000  0.6508444  3
   1705   1703   1721   1723     1  0.0000000  0.6508444  3
   1705   1706   1708   1709     1  180.0000771  41.8400000  2
   1705   1718   1709   1708     1  180.0000771  22.8028000  2
   1705   1718   1709   1710     1  180.0000771  22.8028000  2
   1705   1718   1717   1715     1  180.0000771  17.3636000  2
   1703   1702   1700   1719     1  180.0000771  0.4184000  2
   1703   1702   1700   1719     1  0.0000000  1.6024720  3
   1703   1705   1706   1708     1  180.0000771  7.1128000  2
   1703   1705   1718   1709     1  180.0000771  6.9036000  2
   1703   1705   1718   1717     1  180.0000771  6.9036000  2
   1703   1721   1719   1725     1  0.0000000  0.6508444  3
   1702   1700   1719   1721     1  0.0000000  0.6508444  3
   1702   1700   1719   1725     1  0.0000000  4.9162000  2
   1702   1700   1719   1725     1  0.0000000  0.6024960  3
   1702   1703   1705   1706     1  98.2900423  3.1435856  1
   1702   1703   1705   1706     1  328.5601409  4.5857268  2
   1702   1703   1705   1706     1  50.5200217  -1.7297325  3
   1702   1703   1705   1706     1  40.9900176  0.2709140  4
   1702   1703   1705   1718     1  0.0000000  0.0000000  2
   1702   1703   1721   1719     1  0.0000000  0.6508444  3
   1702   1703   1721   1723     1  0.0000000  4.9162000  2
   1702   1703   1721   1723     1  0.0000000  0.6024960  3
   1700   1702   1703   1705     1  0.0000000  2.7196000  2
   1700   1702   1703   1705     1  0.0000000  1.6024720  3
   1700   1702   1703   1721     1  180.0000771  0.4184000  2
   1700   1702   1703   1721     1  0.0000000  1.6024720  3
   1700   1719   1721   1703     1  180.0000771  0.8368000  1
   1700   1719   1721   1703     1  180.0000771  1.0460000  2
   1700   1719   1721   1703     1  0.0000000  0.7531200  3
   1700   1719   1721   1723     1  0.0000000  0.6508444  3
   1700   1719   1725   1726     1  0.0000000  1.6038667  3
   1697   1700   1702   1703     1  180.0000771  0.4184000  2
   1697   1700   1702   1703     1  0.0000000  1.6024720  3
   1697   1700   1719   1721     1  180.0000771  0.8368000  1
   1697   1700   1719   1721     1  180.0000771  1.0460000  2
   1697   1700   1719   1721     1  0.0000000  0.7531200  3
   1697   1700   1719   1725     1  0.0000000  0.6508444  3
   1696   1697   1700   1702     1  0.0000000  0.6508444  3
   1696   1697   1700   1719     1  299.6901286  -1.5060182  1
   1696   1697   1700   1719     1  274.1001175  5.1381528  2
   1696   1697   1700   1719     1  342.2101465  3.2676873  3
   1695   1693   1696   1697     1  0.0000000  1.0460000  3
   1694   1693   1696   1697     1  0.0000000  1.0460000  3
   1693   1696   1697   1700     1  0.0000000  1.6038667  3
   1759   1760   1763   1764     1  31.7950936  0.7747973  1
   1759   1760   1763   1764     1  351.9597510  5.2573257  2
   1759   1760   1763   1764     1  357.2476330  1.4847259  3
   1757   1755   1753   1759     1  0.0000000  4.9162000  2
   1757   1755   1753   1759     1  0.0000000  0.6024960  3
   1755   1753   1759   1760     1  0.0000000  1.6038667  3
   1753   1759   1760   1761     1  0.0000000  1.0460000  3
   1753   1759   1760   1762     1  0.0000000  1.0460000  3
   1753   1759   1760   1763     1  333.9801429  -1.1598843  1
   1753   1759   1760   1763     1  2.9800013  4.4603365  2
   1753   1759   1760   1763     1  29.4700126  0.7878430  3
   1752   1738   1736   1755     1  0.0000000  0.0000000  2
   1748   1747   1751   1752     1  180.0000771  20.0832000  2
   1745   1743   1742   1752     1  180.0000771  12.5520000  2
   1745   1747   1751   1752     1  180.0000771  20.0832000  2
   1744   1743   1742   1752     1  180.0000771  12.5520000  2
   1744   1743   1745   1747     1  180.0000771  5.6484000  2
   1743   1742   1752   1751     1  180.0000771  22.8028000  2
   1743   1745   1747   1748     1  180.0000771  6.2760000  2
   1743   1745   1747   1751     1  180.0000771  6.2760000  2
   1742   1743   1745   1747     1  180.0000771  5.6484000  2
   1742   1752   1751   1747     1  180.0000771  17.3636000  2
   1741   1739   1738   1752     1  180.0000771  7.1128000  2
   1741   1742   1743   1744     1  180.0000771  12.5520000  2
   1741   1742   1743   1745     1  180.0000771  12.5520000  2
   1741   1742   1752   1751     1  180.0000771  22.8028000  2
   1739   1738   1736   1755     1  0.0000000  0.0000000  2
   1739   1738   1752   1742     1  180.0000771  6.9036000  2
   1739   1738   1752   1751     1  180.0000771  6.9036000  2
   1739   1741   1742   1743     1  180.0000771  10.6692000  2
   1739   1741   1742   1752     1  180.0000771  10.6692000  2
   1738   1736   1755   1753     1  0.0000000  0.6508444  3
   1738   1736   1755   1757     1  0.0000000  0.6508444  3
   1738   1739   1741   1742     1  180.0000771  41.8400000  2
   1738   1752   1742   1741     1  180.0000771  22.8028000  2
   1738   1752   1742   1743     1  180.0000771  22.8028000  2
   1738   1752   1751   1747     1  180.0000771  17.3636000  2
   1736   1735   1733   1753     1  180.0000771  0.4184000  2
   1736   1735   1733   1753     1  0.0000000  1.6024720  3
   1736   1738   1739   1741     1  180.0000771  7.1128000  2
   1736   1738   1752   1742     1  180.0000771  6.9036000  2
   1736   1738   1752   1751     1  180.0000771  6.9036000  2
   1736   1755   1753   1759     1  0.0000000  0.6508444  3
   1735   1733   1753   1755     1  0.0000000  0.6508444  3
   1735   1733   1753   1759     1  0.0000000  4.9162000  2
   1735   1733   1753   1759     1  0.0000000  0.6024960  3
   1735   1736   1738   1739     1  287.1401229  -3.8169126  1
   1735   1736   1738   1739     1  331.9701422  5.7662424  2
   1735   1736   1738   1739     1  27.7600119  -1.7805138  3
   1735   1736   1738   1739     1  328.1301407  0.2514082  4
   1735   1736   1738   1752     1  0.0000000  0.0000000  2
   1735   1736   1755   1753     1  0.0000000  0.6508444  3
   1735   1736   1755   1757     1  0.0000000  4.9162000  2
   1735   1736   1755   1757     1  0.0000000  0.6024960  3
   1733   1735   1736   1738     1  0.0000000  2.7196000  2
   1733   1735   1736   1738     1  0.0000000  1.6024720  3
   1733   1735   1736   1755     1  180.0000771  0.4184000  2
   1733   1735   1736   1755     1  0.0000000  1.6024720  3
   1733   1753   1755   1736     1  180.0000771  0.8368000  1
   1733   1753   1755   1736     1  180.0000771  1.0460000  2
   1733   1753   1755   1736     1  0.0000000  0.7531200  3
   1733   1753   1755   1757     1  0.0000000  0.6508444  3
   1733   1753   1759   1760     1  0.0000000  1.6038667  3
   1730   1733   1735   1736     1  180.0000771  0.4184000  2
   1730   1733   1735   1736     1  0.0000000  1.6024720  3
   1730   1733   1753   1755     1  180.0000771  0.8368000  1
   1730   1733   1753   1755     1  180.0000771  1.0460000  2
   1730   1733   1753   1755     1  0.0000000  0.7531200  3
   1730   1733   1753   1759     1  0.0000000  0.6508444  3
   1729   1730   1733   1735     1  0.0000000  0.6508444  3
   1729   1730   1733   1753     1  299.6901286  -1.5060182  1
   1729   1730   1733   1753     1  274.1001175  5.1381528  2
   1729   1730   1733   1753     1  342.2101465  3.2676873  3
   1728   1726   1729   1730     1  0.0000000  1.0460000  3
   1727   1726   1729   1730     1  0.0000000  1.0460000  3
   1726   1729   1730   1733     1  0.0000000  1.6038667  3
   1793   1794   1797   1798     1  31.7950936  0.7747973  1
   1793   1794   1797   1798     1  351.9597510  5.2573257  2
   1793   1794   1797   1798     1  357.2476330  1.4847259  3
   1791   1789   1787   1793     1  0.0000000  4.9162000  2
   1791   1789   1787   1793     1  0.0000000  0.6024960  3
   1789   1787   1793   1794     1  0.0000000  1.6038667  3
   1787   1793   1794   1795     1  0.0000000  1.0460000  3
   1787   1793   1794   1796     1  0.0000000  1.0460000  3
   1787   1793   1794   1797     1  333.9801429  -1.1598843  1
   1787   1793   1794   1797     1  2.9800013  4.4603365  2
   1787   1793   1794   1797     1  29.4700126  0.7878430  3
   1786   1772   1770   1789     1  0.0000000  0.0000000  2
   1782   1781   1785   1786     1  180.0000771  20.0832000  2
   1779   1777   1776   1786     1  180.0000771  12.5520000  2
   1779   1781   1785   1786     1  180.0000771  20.0832000  2
   1778   1777   1776   1786     1  180.0000771  12.5520000  2
   1778   1777   1779   1781     1  180.0000771  5.6484000  2
   1777   1776   1786   1785     1  180.0000771  22.8028000  2
   1777   1779   1781   1782     1  180.0000771  6.2760000  2
   1777   1779   1781   1785     1  180.0000771  6.2760000  2
   1776   1777   1779   1781     1  180.0000771  5.6484000  2
   1776   1786   1785   1781     1  180.0000771  17.3636000  2
   1775   1773   1772   1786     1  180.0000771  7.1128000  2
   1775   1776   1777   1778     1  180.0000771  12.5520000  2
   1775   1776   1777   1779     1  180.0000771  12.5520000  2
   1775   1776   1786   1785     1  180.0000771  22.8028000  2
   1773   1772   1770   1789     1  0.0000000  0.0000000  2
   1773   1772   1786   1776     1  180.0000771  6.9036000  2
   1773   1772   1786   1785     1  180.0000771  6.9036000  2
   1773   1775   1776   1777     1  180.0000771  10.6692000  2
   1773   1775   1776   1786     1  180.0000771  10.6692000  2
   1772   1770   1789   1787     1  0.0000000  0.6508444  3
   1772   1770   1789   1791     1  0.0000000  0.6508444  3
   1772   1773   1775   1776     1  180.0000771  41.8400000  2
   1772   1786   1776   1775     1  180.0000771  22.8028000  2
   1772   1786   1776   1777     1  180.0000771  22.8028000  2
   1772   1786   1785   1781     1  180.0000771  17.3636000  2
   1770   1769   1767   1787     1  180.0000771  0.4184000  2
   1770   1769   1767   1787     1  0.0000000  1.6024720  3
   1770   1772   1773   1775     1  180.0000771  7.1128000  2
   1770   1772   1786   1776     1  180.0000771  6.9036000  2
   1770   1772   1786   1785     1  180.0000771  6.9036000  2
   1770   1789   1787   1793     1  0.0000000  0.6508444  3
   1769   1767   1787   1789     1  0.0000000  0.6508444  3
   1769   1767   1787   1793     1  0.0000000  4.9162000  2
   1769   1767   1787   1793     1  0.0000000  0.6024960  3
   1769   1770   1772   1773     1  287.1401229  -3.8169126  1
   1769   1770   1772   1773     1  331.9701422  5.7662424  2
   1769   1770   1772   1773     1  27.7600119  -1.7805138  3
   1769   1770   1772   1773     1  328.1301407  0.2514082  4
   1769   1770   1772   1786     1  0.0000000  0.0000000  2
   1769   1770   1789   1787     1  0.0000000  0.6508444  3
   1769   1770   1789   1791     1  0.0000000  4.9162000  2
   1769   1770   1789   1791     1  0.0000000  0.6024960  3
   1767   1769   1770   1772     1  0.0000000  2.7196000  2
   1767   1769   1770   1772     1  0.0000000  1.6024720  3
   1767   1769   1770   1789     1  180.0000771  0.4184000  2
   1767   1769   1770   1789     1  0.0000000  1.6024720  3
   1767   1787   1789   1770     1  180.0000771  0.8368000  1
   1767   1787   1789   1770     1  180.0000771  1.0460000  2
   1767   1787   1789   1770     1  0.0000000  0.7531200  3
   1767   1787   1789   1791     1  0.0000000  0.6508444  3
   1767   1787   1793   1794     1  0.0000000  1.6038667  3
   1764   1767   1769   1770     1  180.0000771  0.4184000  2
   1764   1767   1769   1770     1  0.0000000  1.6024720  3
   1764   1767   1787   1789     1  180.0000771  0.8368000  1
   1764   1767   1787   1789     1  180.0000771  1.0460000  2
   1764   1767   1787   1789     1  0.0000000  0.7531200  3
   1764   1767   1787   1793     1  0.0000000  0.6508444  3
   1763   1764   1767   1769     1  0.0000000  0.6508444  3
   1763   1764   1767   1787     1  299.6901286  -1.5060182  1
   1763   1764   1767   1787     1  274.1001175  5.1381528  2
   1763   1764   1767   1787     1  342.2101465  3.2676873  3
   1762   1760   1763   1764     1  0.0000000  1.0460000  3
   1761   1760   1763   1764     1  0.0000000  1.0460000  3
   1760   1763   1764   1767     1  0.0000000  1.6038667  3
   1824   1825   1828   1829     1  31.7950936  0.7747973  1
   1824   1825   1828   1829     1  351.9597510  5.2573257  2
   1824   1825   1828   1829     1  357.2476330  1.4847259  3
   1822   1820   1818   1824     1  0.0000000  4.9162000  2
   1822   1820   1818   1824     1  0.0000000  0.6024960  3
   1820   1818   1824   1825     1  0.0000000  1.6038667  3
   1818   1824   1825   1826     1  0.0000000  1.0460000  3
   1818   1824   1825   1827     1  0.0000000  1.0460000  3
   1818   1824   1825   1828     1  333.9801429  -1.1598843  1
   1818   1824   1825   1828     1  2.9800013  4.4603365  2
   1818   1824   1825   1828     1  29.4700126  0.7878430  3
   1816   1806   1804   1820     1  0.0000000  0.0000000  2
   1812   1811   1815   1816     1  180.0000771  20.0832000  2
   1811   1815   1816   1817     1  180.0000771  16.7360000  2
   1809   1807   1806   1816     1  180.0000771  7.7404000  2
   1809   1811   1815   1816     1  180.0000771  20.0832000  2
   1807   1806   1804   1820     1  0.0000000  0.0000000  2
   1807   1806   1816   1815     1  180.0000771  6.0668000  2
   1807   1806   1816   1817     1  180.0000771  6.0668000  2
   1807   1809   1811   1812     1  180.0000771  10.6692000  2
   1807   1809   1811   1815     1  180.0000771  10.6692000  2
   1806   1804   1820   1818     1  0.0000000  0.6508444  3
   1806   1804   1820   1822     1  0.0000000  0.6508444  3
   1806   1807   1809   1811     1  180.0000771  27.8236000  2
   1806   1816   1815   1811     1  180.0000771  16.7360000  2
   1804   1803   1801   1818     1  180.0000771  0.4184000  2
   1804   1803   1801   1818     1  0.0000000  1.6024720  3
   1804   1806   1807   1809     1  180.0000771  7.7404000  2
   1804   1806   1816   1815     1  180.0000771  6.0668000  2
   1804   1806   1816   1817     1  180.0000771  6.0668000  2
   1804   1820   1818   1824     1  0.0000000  0.6508444  3
   1803   1801   1818   1820     1  0.0000000  0.6508444  3
   1803   1801   1818   1824     1  0.0000000  4.9162000  2
   1803   1801   1818   1824     1  0.0000000  0.6024960  3
   1803   1804   1806   1807     1  111.1800474  2.8397101  1
   1803   1804   1806   1807     1  340.2301459  5.0000223  2
   1803   1804   1806   1807     1  28.2000121  -3.7349982  3
   1803   1804   1806   1807     1  355.0801519  -1.2977304  4
   1803   1804   1806   1816     1  0.0000000  0.0000000  2
   1803   1804   1820   1818     1  0.0000000  0.6508444  3
   1803   1804   1820   1822     1  0.0000000  4.9162000  2
   1803   1804   1820   1822     1  0.0000000  0.6024960  3
   1801   1803   1804   1806     1  0.0000000  2.7196000  2
   1801   1803   1804   1806     1  0.0000000  1.6024720  3
   1801   1803   1804   1820     1  180.0000771  0.4184000  2
   1801   1803   1804   1820     1  0.0000000  1.6024720  3
   1801   1818   1820   1804     1  180.0000771  0.8368000  1
   1801   1818   1820   1804     1  180.0000771  1.0460000  2
   1801   1818   1820   1804     1  0.0000000  0.7531200  3
   1801   1818   1820   1822     1  0.0000000  0.6508444  3
   1801   1818   1824   1825     1  0.0000000  1.6038667  3
   1798   1801   1803   1804     1  180.0000771  0.4184000  2
   1798   1801   1803   1804     1  0.0000000  1.6024720  3
   1798   1801   1818   1820     1  180.0000771  0.8368000  1
   1798   1801   1818   1820     1  180.0000771  1.0460000  2
   1798   1801   1818   1820     1  0.0000000  0.7531200  3
   1798   1801   1818   1824     1  0.0000000  0.6508444  3
   1797   1798   1801   1803     1  0.0000000  0.6508444  3
   1797   1798   1801   1818     1  299.6901286  -1.5060182  1
   1797   1798   1801   1818     1  274.1001175  5.1381528  2
   1797   1798   1801   1818     1  342.2101465  3.2676873  3
   1796   1794   1797   1798     1  0.0000000  1.0460000  3
   1795   1794   1797   1798     1  0.0000000  1.0460000  3
   1794   1797   1798   1801     1  0.0000000  1.6038667  3
   1857   1858   1861   1862     1  31.7950936  0.7747973  1
   1857   1858   1861   1862     1  351.9597510  5.2573257  2
   1857   1858   1861   1862     1  357.2476330  1.4847259  3
   1855   1853   1851   1857     1  0.0000000  4.9162000  2
   1855   1853   1851   1857     1  0.0000000  0.6024960  3
   1853   1851   1857   1858     1  0.0000000  1.6038667  3
   1851   1857   1858   1859     1  0.0000000  1.0460000  3
   1851   1857   1858   1860     1  0.0000000  1.0460000  3
   1851   1857   1858   1861     1  333.9801429  -1.1598843  1
   1851   1857   1858   1861     1  2.9800013  4.4603365  2
   1851   1857   1858   1861     1  29.4700126  0.7878430  3
   1850   1837   1835   1853     1  0.0000000  0.0000000  2
   1846   1842   1841   1850     1  180.0000771  14.6440000  2
   1846   1847   1849   1850     1  180.0000771  28.4512000  2
   1843   1842   1841   1850     1  180.0000771  14.6440000  2
   1843   1842   1846   1847     1  180.0000771  20.0832000  2
   1842   1841   1850   1849     1  180.0000771  22.8028000  2
   1842   1846   1847   1849     1  180.0000771  28.4512000  2
   1841   1842   1846   1847     1  180.0000771  20.0832000  2
   1841   1850   1849   1847     1  180.0000771  17.3636000  2
   1840   1838   1837   1850     1  180.0000771  7.1128000  2
   1840   1841   1842   1843     1  180.0000771  14.6440000  2
   1840   1841   1842   1846     1  180.0000771  14.6440000  2
   1840   1841   1850   1849     1  180.0000771  22.8028000  2
   1838   1837   1835   1853     1  0.0000000  0.0000000  2
   1838   1837   1850   1841     1  180.0000771  6.9036000  2
   1838   1837   1850   1849     1  180.0000771  6.9036000  2
   1838   1840   1841   1842     1  180.0000771  10.6692000  2
   1838   1840   1841   1850     1  180.0000771  10.6692000  2
   1837   1835   1853   1851     1  0.0000000  0.6508444  3
   1837   1835   1853   1855     1  0.0000000  0.6508444  3
   1837   1838   1840   1841     1  180.0000771  41.8400000  2
   1837   1850   1841   1840     1  180.0000771  22.8028000  2
   1837   1850   1841   1842     1  180.0000771  22.8028000  2
   1837   1850   1849   1847     1  180.0000771  17.3636000  2
   1835   1834   1832   1851     1  180.0000771  0.4184000  2
   1835   1834   1832   1851     1  0.0000000  1.6024720  3
   1835   1837   1838   1840     1  180.0000771  7.1128000  2
   1835   1837   1850   1841     1  180.0000771  6.9036000  2
   1835   1837   1850   1849     1  180.0000771  6.9036000  2
   1835   1853   1851   1857     1  0.0000000  0.6508444  3
   1834   1832   1851   1853     1  0.0000000  0.6508444  3
   1834   1832   1851   1857     1  0.0000000  4.9162000  2
   1834   1832   1851   1857     1  0.0000000  0.6024960  3
   1834   1835   1837   1838     1  98.2900423  3.1435856  1
   1834   1835   1837   1838     1  328.5601409  4.5857268  2
   1834   1835   1837   1838     1  50.5200217  -1.7297325  3
   1834   1835   1837   1838     1  40.9900176  0.2709140  4
   1834   1835   1837   1850     1  0.0000000  0.0000000  2
   1834   1835   1853   1851     1  0.0000000  0.6508444  3
   1834   1835   1853   1855     1  0.0000000  4.9162000  2
   1834   1835   1853   1855     1  0.0000000  0.6024960  3
   1832   1834   1835   1837     1  0.0000000  2.7196000  2
   1832   1834   1835   1837     1  0.0000000  1.6024720  3
   1832   1834   1835   1853     1  180.0000771  0.4184000  2
   1832   1834   1835   1853     1  0.0000000  1.6024720  3
   1832   1851   1853   1835     1  180.0000771  0.8368000  1
   1832   1851   1853   1835     1  180.0000771  1.0460000  2
   1832   1851   1853   1835     1  0.0000000  0.7531200  3
   1832   1851   1853   1855     1  0.0000000  0.6508444  3
   1832   1851   1857   1858     1  0.0000000  1.6038667  3
   1829   1832   1834   1835     1  180.0000771  0.4184000  2
   1829   1832   1834   1835     1  0.0000000  1.6024720  3
   1829   1832   1851   1853     1  180.0000771  0.8368000  1
   1829   1832   1851   1853     1  180.0000771  1.0460000  2
   1829   1832   1851   1853     1  0.0000000  0.7531200  3
   1829   1832   1851   1857     1  0.0000000  0.6508444  3
   1828   1829   1832   1834     1  0.0000000  0.6508444  3
   1828   1829   1832   1851     1  299.6901286  -1.5060182  1
   1828   1829   1832   1851     1  274.1001175  5.1381528  2
   1828   1829   1832   1851     1  342.2101465  3.2676873  3
   1827   1825   1828   1829     1  0.0000000  1.0460000  3
   1826   1825   1828   1829     1  0.0000000  1.0460000  3
   1825   1828   1829   1832     1  0.0000000  1.6038667  3
   1888   1889   1892   1893     1  31.7950936  0.7747973  1
   1888   1889   1892   1893     1  351.9597510  5.2573257  2
   1888   1889   1892   1893     1  357.2476330  1.4847259  3
   1886   1884   1882   1888     1  0.0000000  4.9162000  2
   1886   1884   1882   1888     1  0.0000000  0.6024960  3
   1884   1882   1888   1889     1  0.0000000  1.6038667  3
   1882   1888   1889   1890     1  0.0000000  1.0460000  3
   1882   1888   1889   1891     1  0.0000000  1.0460000  3
   1882   1888   1889   1892     1  333.9801429  -1.1598843  1
   1882   1888   1889   1892     1  2.9800013  4.4603365  2
   1882   1888   1889   1892     1  29.4700126  0.7878430  3
   1880   1870   1868   1884     1  0.0000000  0.0000000  2
   1876   1875   1879   1880     1  180.0000771  20.0832000  2
   1875   1879   1880   1881     1  180.0000771  16.7360000  2
   1873   1871   1870   1880     1  180.0000771  7.7404000  2
   1873   1875   1879   1880     1  180.0000771  20.0832000  2
   1871   1870   1868   1884     1  0.0000000  0.0000000  2
   1871   1870   1880   1879     1  180.0000771  6.0668000  2
   1871   1870   1880   1881     1  180.0000771  6.0668000  2
   1871   1873   1875   1876     1  180.0000771  10.6692000  2
   1871   1873   1875   1879     1  180.0000771  10.6692000  2
   1870   1868   1884   1882     1  0.0000000  0.6508444  3
   1870   1868   1884   1886     1  0.0000000  0.6508444  3
   1870   1871   1873   1875     1  180.0000771  27.8236000  2
   1870   1880   1879   1875     1  180.0000771  16.7360000  2
   1868   1867   1865   1882     1  180.0000771  0.4184000  2
   1868   1867   1865   1882     1  0.0000000  1.6024720  3
   1868   1870   1871   1873     1  180.0000771  7.7404000  2
   1868   1870   1880   1879     1  180.0000771  6.0668000  2
   1868   1870   1880   1881     1  180.0000771  6.0668000  2
   1868   1884   1882   1888     1  0.0000000  0.6508444  3
   1867   1865   1882   1884     1  0.0000000  0.6508444  3
   1867   1865   1882   1888     1  0.0000000  4.9162000  2
   1867   1865   1882   1888     1  0.0000000  0.6024960  3
   1867   1868   1870   1871     1  111.1800474  2.8397101  1
   1867   1868   1870   1871     1  340.2301459  5.0000223  2
   1867   1868   1870   1871     1  28.2000121  -3.7349982  3
   1867   1868   1870   1871     1  355.0801519  -1.2977304  4
   1867   1868   1870   1880     1  0.0000000  0.0000000  2
   1867   1868   1884   1882     1  0.0000000  0.6508444  3
   1867   1868   1884   1886     1  0.0000000  4.9162000  2
   1867   1868   1884   1886     1  0.0000000  0.6024960  3
   1865   1867   1868   1870     1  0.0000000  2.7196000  2
   1865   1867   1868   1870     1  0.0000000  1.6024720  3
   1865   1867   1868   1884     1  180.0000771  0.4184000  2
   1865   1867   1868   1884     1  0.0000000  1.6024720  3
   1865   1882   1884   1868     1  180.0000771  0.8368000  1
   1865   1882   1884   1868     1  180.0000771  1.0460000  2
   1865   1882   1884   1868     1  0.0000000  0.7531200  3
   1865   1882   1884   1886     1  0.0000000  0.6508444  3
   1865   1882   1888   1889     1  0.0000000  1.6038667  3
   1862   1865   1867   1868     1  180.0000771  0.4184000  2
   1862   1865   1867   1868     1  0.0000000  1.6024720  3
   1862   1865   1882   1884     1  180.0000771  0.8368000  1
   1862   1865   1882   1884     1  180.0000771  1.0460000  2
   1862   1865   1882   1884     1  0.0000000  0.7531200  3
   1862   1865   1882   1888     1  0.0000000  0.6508444  3
   1861   1862   1865   1867     1  0.0000000  0.6508444  3
   1861   1862   1865   1882     1  299.6901286  -1.5060182  1
   1861   1862   1865   1882     1  274.1001175  5.1381528  2
   1861   1862   1865   1882     1  342.2101465  3.2676873  3
   1860   1858   1861   1862     1  0.0000000  1.0460000  3
   1859   1858   1861   1862     1  0.0000000  1.0460000  3
   1858   1861   1862   1865     1  0.0000000  1.6038667  3
   1918   1919   1922   1923     1  31.7950936  0.7747973  1
   1918   1919   1922   1923     1  351.9597510  5.2573257  2
   1918   1919   1922   1923     1  357.2476330  1.4847259  3
   1916   1914   1912   1918     1  0.0000000  4.9162000  2
   1916   1914   1912   1918     1  0.0000000  0.6024960  3
   1914   1912   1918   1919     1  0.0000000  1.6038667  3
   1912   1918   1919   1920     1  0.0000000  1.0460000  3
   1912   1918   1919   1921     1  0.0000000  1.0460000  3
   1912   1918   1919   1922     1  333.9801429  -1.1598843  1
   1912   1918   1919   1922     1  2.9800013  4.4603365  2
   1912   1918   1919   1922     1  29.4700126  0.7878430  3
   1910   1901   1899   1914     1  0.0000000  0.0000000  2
   1907   1906   1908   1910     1  180.0000771  5.6484000  2
   1906   1908   1910   1911     1  180.0000771  5.6484000  2
   1904   1902   1901   1910     1  180.0000771  7.7404000  2
   1904   1906   1908   1910     1  180.0000771  5.6484000  2
   1902   1901   1899   1914     1  0.0000000  0.0000000  2
   1902   1901   1910   1908     1  180.0000771  6.0668000  2
   1902   1901   1910   1911     1  180.0000771  6.0668000  2
   1902   1904   1906   1907     1  180.0000771  9.1002000  2
   1902   1904   1906   1907     1  0.0000000  1.2552000  3
   1902   1904   1906   1908     1  180.0000771  9.1002000  2
   1901   1899   1914   1912     1  0.0000000  0.6508444  3
   1901   1899   1914   1916     1  0.0000000  0.6508444  3
   1901   1902   1904   1906     1  180.0000771  27.8236000  2
   1901   1910   1908   1906     1  180.0000771  5.6484000  2
   1899   1898   1896   1912     1  180.0000771  0.4184000  2
   1899   1898   1896   1912     1  0.0000000  1.6024720  3
   1899   1901   1902   1904     1  180.0000771  7.7404000  2
   1899   1901   1910   1908     1  180.0000771  6.0668000  2
   1899   1901   1910   1911     1  180.0000771  6.0668000  2
   1899   1914   1912   1918     1  0.0000000  0.6508444  3
   1898   1896   1912   1914     1  0.0000000  0.6508444  3
   1898   1896   1912   1918     1  0.0000000  4.9162000  2
   1898   1896   1912   1918     1  0.0000000  0.6024960  3
   1898   1899   1901   1902     1  147.4600633  2.5402277  1
   1898   1899   1901   1902     1  346.4201487  5.4288069  2
   1898   1899   1901   1902     1  38.1300163  -2.0913808  3
   1898   1899   1901   1902     1  348.0001491  -0.6909207  4
   1898   1899   1901   1910     1  0.0000000  0.0000000  2
   1898   1899   1914   1912     1  0.0000000  0.6508444  3
   1898   1899   1914   1916     1  0.0000000  4.9162000  2
   1898   1899   1914   1916     1  0.0000000  0.6024960  3
   1896   1898   1899   1901     1  0.0000000  2.7196000  2
   1896   1898   1899   1901     1  0.0000000  1.6024720  3
   1896   1898   1899   1914     1  180.0000771  0.4184000  2
   1896   1898   1899   1914     1  0.0000000  1.6024720  3
   1896   1912   1914   1899     1  180.0000771  0.8368000  1
   1896   1912   1914   1899     1  180.0000771  1.0460000  2
   1896   1912   1914   1899     1  0.0000000  0.7531200  3
   1896   1912   1914   1916     1  0.0000000  0.6508444  3
   1896   1912   1918   1919     1  0.0000000  1.6038667  3
   1893   1896   1898   1899     1  180.0000771  0.4184000  2
   1893   1896   1898   1899     1  0.0000000  1.6024720  3
   1893   1896   1912   1914     1  180.0000771  0.8368000  1
   1893   1896   1912   1914     1  180.0000771  1.0460000  2
   1893   1896   1912   1914     1  0.0000000  0.7531200  3
   1893   1896   1912   1918     1  0.0000000  0.6508444  3
   1892   1893   1896   1898     1  0.0000000  0.6508444  3
   1892   1893   1896   1912     1  299.6901286  -1.5060182  1
   1892   1893   1896   1912     1  274.1001175  5.1381528  2
   1892   1893   1896   1912     1  342.2101465  3.2676873  3
   1891   1889   1892   1893     1  0.0000000  1.0460000  3
   1890   1889   1892   1893     1  0.0000000  1.0460000  3
   1889   1892   1893   1896     1  0.0000000  1.6038667  3
   1951   1952   1955   1956     1  31.7950936  0.7747973  1
   1951   1952   1955   1956     1  351.9597510  5.2573257  2
   1951   1952   1955   1956     1  357.2476330  1.4847259  3
   1949   1947   1945   1951     1  0.0000000  4.9162000  2
   1949   1947   1945   1951     1  0.0000000  0.6024960  3
   1947   1945   1951   1952     1  0.0000000  1.6038667  3
   1945   1951   1952   1953     1  0.0000000  1.0460000  3
   1945   1951   1952   1954     1  0.0000000  1.0460000  3
   1945   1951   1952   1955     1  333.9801429  -1.1598843  1
   1945   1951   1952   1955     1  2.9800013  4.4603365  2
   1945   1951   1952   1955     1  29.4700126  0.7878430  3
   1944   1931   1929   1947     1  0.0000000  0.0000000  2
   1940   1936   1935   1944     1  180.0000771  14.6440000  2
   1940   1941   1943   1944     1  180.0000771  28.4512000  2
   1937   1936   1935   1944     1  180.0000771  14.6440000  2
   1937   1936   1940   1941     1  180.0000771  20.0832000  2
   1936   1935   1944   1943     1  180.0000771  22.8028000  2
   1936   1940   1941   1943     1  180.0000771  28.4512000  2
   1935   1936   1940   1941     1  180.0000771  20.0832000  2
   1935   1944   1943   1941     1  180.0000771  17.3636000  2
   1934   1932   1931   1944     1  180.0000771  7.1128000  2
   1934   1935   1936   1937     1  180.0000771  14.6440000  2
   1934   1935   1936   1940     1  180.0000771  14.6440000  2
   1934   1935   1944   1943     1  180.0000771  22.8028000  2
   1932   1931   1929   1947     1  0.0000000  0.0000000  2
   1932   1931   1944   1935     1  180.0000771  6.9036000  2
   1932   1931   1944   1943     1  180.0000771  6.9036000  2
   1932   1934   1935   1936     1  180.0000771  10.6692000  2
   1932   1934   1935   1944     1  180.0000771  10.6692000  2
   1931   1929   1947   1945     1  0.0000000  0.6508444  3
   1931   1929   1947   1949     1  0.0000000  0.6508444  3
   1931   1932   1934   1935     1  180.0000771  41.8400000  2
   1931   1944   1935   1934     1  180.0000771  22.8028000  2
   1931   1944   1935   1936     1  180.0000771  22.8028000  2
   1931   1944   1943   1941     1  180.0000771  17.3636000  2
   1929   1928   1926   1945     1  180.0000771  0.4184000  2
   1929   1928   1926   1945     1  0.0000000  1.6024720  3
   1929   1931   1932   1934     1  180.0000771  7.1128000  2
   1929   1931   1944   1935     1  180.0000771  6.9036000  2
   1929   1931   1944   1943     1  180.0000771  6.9036000  2
   1929   1947   1945   1951     1  0.0000000  0.6508444  3
   1928   1926   1945   1947     1  0.0000000  0.6508444  3
   1928   1926   1945   1951     1  0.0000000  4.9162000  2
   1928   1926   1945   1951     1  0.0000000  0.6024960  3
   1928   1929   1931   1932     1  98.2900423  3.1435856  1
   1928   1929   1931   1932     1  328.5601409  4.5857268  2
   1928   1929   1931   1932     1  50.5200217  -1.7297325  3
   1928   1929   1931   1932     1  40.9900176  0.2709140  4
   1928   1929   1931   1944     1  0.0000000  0.0000000  2
   1928   1929   1947   1945     1  0.0000000  0.6508444  3
   1928   1929   1947   1949     1  0.0000000  4.9162000  2
   1928   1929   1947   1949     1  0.0000000  0.6024960  3
   1926   1928   1929   1931     1  0.0000000  2.7196000  2
   1926   1928   1929   1931     1  0.0000000  1.6024720  3
   1926   1928   1929   1947     1  180.0000771  0.4184000  2
   1926   1928   1929   1947     1  0.0000000  1.6024720  3
   1926   1945   1947   1929     1  180.0000771  0.8368000  1
   1926   1945   1947   1929     1  180.0000771  1.0460000  2
   1926   1945   1947   1929     1  0.0000000  0.7531200  3
   1926   1945   1947   1949     1  0.0000000  0.6508444  3
   1926   1945   1951   1952     1  0.0000000  1.6038667  3
   1923   1926   1928   1929     1  180.0000771  0.4184000  2
   1923   1926   1928   1929     1  0.0000000  1.6024720  3
   1923   1926   1945   1947     1  180.0000771  0.8368000  1
   1923   1926   1945   1947     1  180.0000771  1.0460000  2
   1923   1926   1945   1947     1  0.0000000  0.7531200  3
   1923   1926   1945   1951     1  0.0000000  0.6508444  3
   1922   1923   1926   1928     1  0.0000000  0.6508444  3
   1922   1923   1926   1945     1  299.6901286  -1.5060182  1
   1922   1923   1926   1945     1  274.1001175  5.1381528  2
   1922   1923   1926   1945     1  342.2101465  3.2676873  3
   1921   1919   1922   1923     1  0.0000000  1.0460000  3
   1920   1919   1922   1923     1  0.0000000  1.0460000  3
   1919   1922   1923   1926     1  0.0000000  1.6038667  3
   1985   1986   1989   1990     1  31.7950936  0.7747973  1
   1985   1986   1989   1990     1  351.9597510  5.2573257  2
   1985   1986   1989   1990     1  357.2476330  1.4847259  3
   1983   1981   1979   1985     1  0.0000000  4.9162000  2
   1983   1981   1979   1985     1  0.0000000  0.6024960  3
   1981   1979   1985   1986     1  0.0000000  1.6038667  3
   1979   1985   1986   1987     1  0.0000000  1.0460000  3
   1979   1985   1986   1988     1  0.0000000  1.0460000  3
   1979   1985   1986   1989     1  333.9801429  -1.1598843  1
   1979   1985   1986   1989     1  2.9800013  4.4603365  2
   1979   1985   1986   1989     1  29.4700126  0.7878430  3
   1978   1964   1962   1981     1  0.0000000  0.0000000  2
   1974   1973   1977   1978     1  180.0000771  20.0832000  2
   1971   1969   1968   1978     1  180.0000771  12.5520000  2
   1971   1973   1977   1978     1  180.0000771  20.0832000  2
   1970   1969   1968   1978     1  180.0000771  12.5520000  2
   1970   1969   1971   1973     1  180.0000771  5.6484000  2
   1969   1968   1978   1977     1  180.0000771  22.8028000  2
   1969   1971   1973   1974     1  180.0000771  6.2760000  2
   1969   1971   1973   1977     1  180.0000771  6.2760000  2
   1968   1969   1971   1973     1  180.0000771  5.6484000  2
   1968   1978   1977   1973     1  180.0000771  17.3636000  2
   1967   1965   1964   1978     1  180.0000771  7.1128000  2
   1967   1968   1969   1970     1  180.0000771  12.5520000  2
   1967   1968   1969   1971     1  180.0000771  12.5520000  2
   1967   1968   1978   1977     1  180.0000771  22.8028000  2
   1965   1964   1962   1981     1  0.0000000  0.0000000  2
   1965   1964   1978   1968     1  180.0000771  6.9036000  2
   1965   1964   1978   1977     1  180.0000771  6.9036000  2
   1965   1967   1968   1969     1  180.0000771  10.6692000  2
   1965   1967   1968   1978     1  180.0000771  10.6692000  2
   1964   1962   1981   1979     1  0.0000000  0.6508444  3
   1964   1962   1981   1983     1  0.0000000  0.6508444  3
   1964   1965   1967   1968     1  180.0000771  41.8400000  2
   1964   1978   1968   1967     1  180.0000771  22.8028000  2
   1964   1978   1968   1969     1  180.0000771  22.8028000  2
   1964   1978   1977   1973     1  180.0000771  17.3636000  2
   1962   1961   1959   1979     1  180.0000771  0.4184000  2
   1962   1961   1959   1979     1  0.0000000  1.6024720  3
   1962   1964   1965   1967     1  180.0000771  7.1128000  2
   1962   1964   1978   1968     1  180.0000771  6.9036000  2
   1962   1964   1978   1977     1  180.0000771  6.9036000  2
   1962   1981   1979   1985     1  0.0000000  0.6508444  3
   1961   1959   1979   1981     1  0.0000000  0.6508444  3
   1961   1959   1979   1985     1  0.0000000  4.9162000  2
   1961   1959   1979   1985     1  0.0000000  0.6024960  3
   1961   1962   1964   1965     1  287.1401229  -3.8169126  1
   1961   1962   1964   1965     1  331.9701422  5.7662424  2
   1961   1962   1964   1965     1  27.7600119  -1.7805138  3
   1961   1962   1964   1965     1  328.1301407  0.2514082  4
   1961   1962   1964   1978     1  0.0000000  0.0000000  2
   1961   1962   1981   1979     1  0.0000000  0.6508444  3
   1961   1962   1981   1983     1  0.0000000  4.9162000  2
   1961   1962   1981   1983     1  0.0000000  0.6024960  3
   1959   1961   1962   1964     1  0.0000000  2.7196000  2
   1959   1961   1962   1964     1  0.0000000  1.6024720  3
   1959   1961   1962   1981     1  180.0000771  0.4184000  2
   1959   1961   1962   1981     1  0.0000000  1.6024720  3
   1959   1979   1981   1962     1  180.0000771  0.8368000  1
   1959   1979   1981   1962     1  180.0000771  1.0460000  2
   1959   1979   1981   1962     1  0.0000000  0.7531200  3
   1959   1979   1981   1983     1  0.0000000  0.6508444  3
   1959   1979   1985   1986     1  0.0000000  1.6038667  3
   1956   1959   1961   1962     1  180.0000771  0.4184000  2
   1956   1959   1961   1962     1  0.0000000  1.6024720  3
   1956   1959   1979   1981     1  180.0000771  0.8368000  1
   1956   1959   1979   1981     1  180.0000771  1.0460000  2
   1956   1959   1979   1981     1  0.0000000  0.7531200  3
   1956   1959   1979   1985     1  0.0000000  0.6508444  3
   1955   1956   1959   1961     1  0.0000000  0.6508444  3
   1955   1956   1959   1979     1  299.6901286  -1.5060182  1
   1955   1956   1959   1979     1  274.1001175  5.1381528  2
   1955   1956   1959   1979     1  342.2101465  3.2676873  3
   1954   1952   1955   1956     1  0.0000000  1.0460000  3
   1953   1952   1955   1956     1  0.0000000  1.0460000  3
   1952   1955   1956   1959     1  0.0000000  1.6038667  3
   2015   2016   2019   2020     1  31.7950936  0.7747973  1
   2015   2016   2019   2020     1  351.9597510  5.2573257  2
   2015   2016   2019   2020     1  357.2476330  1.4847259  3
   2013   2011   2009   2015     1  0.0000000  4.9162000  2
   2013   2011   2009   2015     1  0.0000000  0.6024960  3
   2011   2009   2015   2016     1  0.0000000  1.6038667  3
   2009   2015   2016   2017     1  0.0000000  1.0460000  3
   2009   2015   2016   2018     1  0.0000000  1.0460000  3
   2009   2015   2016   2019     1  333.9801429  -1.1598843  1
   2009   2015   2016   2019     1  2.9800013  4.4603365  2
   2009   2015   2016   2019     1  29.4700126  0.7878430  3
   2007   1998   1996   2011     1  0.0000000  0.0000000  2
   2004   2003   2005   2007     1  180.0000771  5.6484000  2
   2003   2005   2007   2008     1  180.0000771  5.6484000  2
   2001   1999   1998   2007     1  180.0000771  7.7404000  2
   2001   2003   2005   2007     1  180.0000771  5.6484000  2
   1999   1998   1996   2011     1  0.0000000  0.0000000  2
   1999   1998   2007   2005     1  180.0000771  6.0668000  2
   1999   1998   2007   2008     1  180.0000771  6.0668000  2
   1999   2001   2003   2004     1  180.0000771  9.1002000  2
   1999   2001   2003   2004     1  0.0000000  1.2552000  3
   1999   2001   2003   2005     1  180.0000771  9.1002000  2
   1998   1996   2011   2009     1  0.0000000  0.6508444  3
   1998   1996   2011   2013     1  0.0000000  0.6508444  3
   1998   1999   2001   2003     1  180.0000771  27.8236000  2
   1998   2007   2005   2003     1  180.0000771  5.6484000  2
   1996   1995   1993   2009     1  180.0000771  0.4184000  2
   1996   1995   1993   2009     1  0.0000000  1.6024720  3
   1996   1998   1999   2001     1  180.0000771  7.7404000  2
   1996   1998   2007   2005     1  180.0000771  6.0668000  2
   1996   1998   2007   2008     1  180.0000771  6.0668000  2
   1996   2011   2009   2015     1  0.0000000  0.6508444  3
   1995   1993   2009   2011     1  0.0000000  0.6508444  3
   1995   1993   2009   2015     1  0.0000000  4.9162000  2
   1995   1993   2009   2015     1  0.0000000  0.6024960  3
   1995   1996   1998   1999     1  147.4600633  2.5402277  1
   1995   1996   1998   1999     1  346.4201487  5.4288069  2
   1995   1996   1998   1999     1  38.1300163  -2.0913808  3
   1995   1996   1998   1999     1  348.0001491  -0.6909207  4
   1995   1996   1998   2007     1  0.0000000  0.0000000  2
   1995   1996   2011   2009     1  0.0000000  0.6508444  3
   1995   1996   2011   2013     1  0.0000000  4.9162000  2
   1995   1996   2011   2013     1  0.0000000  0.6024960  3
   1993   1995   1996   1998     1  0.0000000  2.7196000  2
   1993   1995   1996   1998     1  0.0000000  1.6024720  3
   1993   1995   1996   2011     1  180.0000771  0.4184000  2
   1993   1995   1996   2011     1  0.0000000  1.6024720  3
   1993   2009   2011   1996     1  180.0000771  0.8368000  1
   1993   2009   2011   1996     1  180.0000771  1.0460000  2
   1993   2009   2011   1996     1  0.0000000  0.7531200  3
   1993   2009   2011   2013     1  0.0000000  0.6508444  3
   1993   2009   2015   2016     1  0.0000000  1.6038667  3
   1990   1993   1995   1996     1  180.0000771  0.4184000  2
   1990   1993   1995   1996     1  0.0000000  1.6024720  3
   1990   1993   2009   2011     1  180.0000771  0.8368000  1
   1990   1993   2009   2011     1  180.0000771  1.0460000  2
   1990   1993   2009   2011     1  0.0000000  0.7531200  3
   1990   1993   2009   2015     1  0.0000000  0.6508444  3
   1989   1990   1993   1995     1  0.0000000  0.6508444  3
   1989   1990   1993   2009     1  299.6901286  -1.5060182  1
   1989   1990   1993   2009     1  274.1001175  5.1381528  2
   1989   1990   1993   2009     1  342.2101465  3.2676873  3
   1988   1986   1989   1990     1  0.0000000  1.0460000  3
   1987   1986   1989   1990     1  0.0000000  1.0460000  3
   1986   1989   1990   1993     1  0.0000000  1.6038667  3
   2048   2049   2052   2053     1  31.7950936  0.7747973  1
   2048   2049   2052   2053     1  351.9597510  5.2573257  2
   2048   2049   2052   2053     1  357.2476330  1.4847259  3
   2046   2044   2042   2048     1  0.0000000  4.9162000  2
   2046   2044   2042   2048     1  0.0000000  0.6024960  3
   2044   2042   2048   2049     1  0.0000000  1.6038667  3
   2042   2048   2049   2050     1  0.0000000  1.0460000  3
   2042   2048   2049   2051     1  0.0000000  1.0460000  3
   2042   2048   2049   2052     1  333.9801429  -1.1598843  1
   2042   2048   2049   2052     1  2.9800013  4.4603365  2
   2042   2048   2049   2052     1  29.4700126  0.7878430  3
   2041   2028   2026   2044     1  0.0000000  0.0000000  2
   2037   2033   2032   2041     1  180.0000771  14.6440000  2
   2037   2038   2040   2041     1  180.0000771  28.4512000  2
   2034   2033   2032   2041     1  180.0000771  14.6440000  2
   2034   2033   2037   2038     1  180.0000771  20.0832000  2
   2033   2032   2041   2040     1  180.0000771  22.8028000  2
   2033   2037   2038   2040     1  180.0000771  28.4512000  2
   2032   2033   2037   2038     1  180.0000771  20.0832000  2
   2032   2041   2040   2038     1  180.0000771  17.3636000  2
   2031   2029   2028   2041     1  180.0000771  7.1128000  2
   2031   2032   2033   2034     1  180.0000771  14.6440000  2
   2031   2032   2033   2037     1  180.0000771  14.6440000  2
   2031   2032   2041   2040     1  180.0000771  22.8028000  2
   2029   2028   2026   2044     1  0.0000000  0.0000000  2
   2029   2028   2041   2032     1  180.0000771  6.9036000  2
   2029   2028   2041   2040     1  180.0000771  6.9036000  2
   2029   2031   2032   2033     1  180.0000771  10.6692000  2
   2029   2031   2032   2041     1  180.0000771  10.6692000  2
   2028   2026   2044   2042     1  0.0000000  0.6508444  3
   2028   2026   2044   2046     1  0.0000000  0.6508444  3
   2028   2029   2031   2032     1  180.0000771  41.8400000  2
   2028   2041   2032   2031     1  180.0000771  22.8028000  2
   2028   2041   2032   2033     1  180.0000771  22.8028000  2
   2028   2041   2040   2038     1  180.0000771  17.3636000  2
   2026   2025   2023   2042     1  180.0000771  0.4184000  2
   2026   2025   2023   2042     1  0.0000000  1.6024720  3
   2026   2028   2029   2031     1  180.0000771  7.1128000  2
   2026   2028   2041   2032     1  180.0000771  6.9036000  2
   2026   2028   2041   2040     1  180.0000771  6.9036000  2
   2026   2044   2042   2048     1  0.0000000  0.6508444  3
   2025   2023   2042   2044     1  0.0000000  0.6508444  3
   2025   2023   2042   2048     1  0.0000000  4.9162000  2
   2025   2023   2042   2048     1  0.0000000  0.6024960  3
   2025   2026   2028   2029     1  98.2900423  3.1435856  1
   2025   2026   2028   2029     1  328.5601409  4.5857268  2
   2025   2026   2028   2029     1  50.5200217  -1.7297325  3
   2025   2026   2028   2029     1  40.9900176  0.2709140  4
   2025   2026   2028   2041     1  0.0000000  0.0000000  2
   2025   2026   2044   2042     1  0.0000000  0.6508444  3
   2025   2026   2044   2046     1  0.0000000  4.9162000  2
   2025   2026   2044   2046     1  0.0000000  0.6024960  3
   2023   2025   2026   2028     1  0.0000000  2.7196000  2
   2023   2025   2026   2028     1  0.0000000  1.6024720  3
   2023   2025   2026   2044     1  180.0000771  0.4184000  2
   2023   2025   2026   2044     1  0.0000000  1.6024720  3
   2023   2042   2044   2026     1  180.0000771  0.8368000  1
   2023   2042   2044   2026     1  180.0000771  1.0460000  2
   2023   2042   2044   2026     1  0.0000000  0.7531200  3
   2023   2042   2044   2046     1  0.0000000  0.6508444  3
   2023   2042   2048   2049     1  0.0000000  1.6038667  3
   2020   2023   2025   2026     1  180.0000771  0.4184000  2
   2020   2023   2025   2026     1  0.0000000  1.6024720  3
   2020   2023   2042   2044     1  180.0000771  0.8368000  1
   2020   2023   2042   2044     1  180.0000771  1.0460000  2
   2020   2023   2042   2044     1  0.0000000  0.7531200  3
   2020   2023   2042   2048     1  0.0000000  0.6508444  3
   2019   2020   2023   2025     1  0.0000000  0.6508444  3
   2019   2020   2023   2042     1  299.6901286  -1.5060182  1
   2019   2020   2023   2042     1  274.1001175  5.1381528  2
   2019   2020   2023   2042     1  342.2101465  3.2676873  3
   2018   2016   2019   2020     1  0.0000000  1.0460000  3
   2017   2016   2019   2020     1  0.0000000  1.0460000  3
   2016   2019   2020   2023     1  0.0000000  1.6038667  3
   2079   2080   2083   2084     1  31.7950936  0.7747973  1
   2079   2080   2083   2084     1  351.9597510  5.2573257  2
   2079   2080   2083   2084     1  357.2476330  1.4847259  3
   2077   2075   2073   2079     1  0.0000000  4.9162000  2
   2077   2075   2073   2079     1  0.0000000  0.6024960  3
   2075   2073   2079   2080     1  0.0000000  1.6038667  3
   2073   2079   2080   2081     1  0.0000000  1.0460000  3
   2073   2079   2080   2082     1  0.0000000  1.0460000  3
   2073   2079   2080   2083     1  333.9801429  -1.1598843  1
   2073   2079   2080   2083     1  2.9800013  4.4603365  2
   2073   2079   2080   2083     1  29.4700126  0.7878430  3
   2071   2061   2059   2075     1  0.0000000  0.0000000  2
   2067   2066   2070   2071     1  180.0000771  20.0832000  2
   2066   2070   2071   2072     1  180.0000771  16.7360000  2
   2064   2062   2061   2071     1  180.0000771  7.7404000  2
   2064   2066   2070   2071     1  180.0000771  20.0832000  2
   2062   2061   2059   2075     1  0.0000000  0.0000000  2
   2062   2061   2071   2070     1  180.0000771  6.0668000  2
   2062   2061   2071   2072     1  180.0000771  6.0668000  2
   2062   2064   2066   2067     1  180.0000771  10.6692000  2
   2062   2064   2066   2070     1  180.0000771  10.6692000  2
   2061   2059   2075   2073     1  0.0000000  0.6508444  3
   2061   2059   2075   2077     1  0.0000000  0.6508444  3
   2061   2062   2064   2066     1  180.0000771  27.8236000  2
   2061   2071   2070   2066     1  180.0000771  16.7360000  2
   2059   2058   2056   2073     1  180.0000771  0.4184000  2
   2059   2058   2056   2073     1  0.0000000  1.6024720  3
   2059   2061   2062   2064     1  180.0000771  7.7404000  2
   2059   2061   2071   2070     1  180.0000771  6.0668000  2
   2059   2061   2071   2072     1  180.0000771  6.0668000  2
   2059   2075   2073   2079     1  0.0000000  0.6508444  3
   2058   2056   2073   2075     1  0.0000000  0.6508444  3
   2058   2056   2073   2079     1  0.0000000  4.9162000  2
   2058   2056   2073   2079     1  0.0000000  0.6024960  3
   2058   2059   2061   2062     1  111.1800474  2.8397101  1
   2058   2059   2061   2062     1  340.2301459  5.0000223  2
   2058   2059   2061   2062     1  28.2000121  -3.7349982  3
   2058   2059   2061   2062     1  355.0801519  -1.2977304  4
   2058   2059   2061   2071     1  0.0000000  0.0000000  2
   2058   2059   2075   2073     1  0.0000000  0.6508444  3
   2058   2059   2075   2077     1  0.0000000  4.9162000  2
   2058   2059   2075   2077     1  0.0000000  0.6024960  3
   2056   2058   2059   2061     1  0.0000000  2.7196000  2
   2056   2058   2059   2061     1  0.0000000  1.6024720  3
   2056   2058   2059   2075     1  180.0000771  0.4184000  2
   2056   2058   2059   2075     1  0.0000000  1.6024720  3
   2056   2073   2075   2059     1  180.0000771  0.8368000  1
   2056   2073   2075   2059     1  180.0000771  1.0460000  2
   2056   2073   2075   2059     1  0.0000000  0.7531200  3
   2056   2073   2075   2077     1  0.0000000  0.6508444  3
   2056   2073   2079   2080     1  0.0000000  1.6038667  3
   2053   2056   2058   2059     1  180.0000771  0.4184000  2
   2053   2056   2058   2059     1  0.0000000  1.6024720  3
   2053   2056   2073   2075     1  180.0000771  0.8368000  1
   2053   2056   2073   2075     1  180.0000771  1.0460000  2
   2053   2056   2073   2075     1  0.0000000  0.7531200  3
   2053   2056   2073   2079     1  0.0000000  0.6508444  3
   2052   2053   2056   2058     1  0.0000000  0.6508444  3
   2052   2053   2056   2073     1  299.6901286  -1.5060182  1
   2052   2053   2056   2073     1  274.1001175  5.1381528  2
   2052   2053   2056   2073     1  342.2101465  3.2676873  3
   2051   2049   2052   2053     1  0.0000000  1.0460000  3
   2050   2049   2052   2053     1  0.0000000  1.0460000  3
   2049   2052   2053   2056     1  0.0000000  1.6038667  3
   2109   2110   2113   2114     1  31.7950936  0.7747973  1
   2109   2110   2113   2114     1  351.9597510  5.2573257  2
   2109   2110   2113   2114     1  357.2476330  1.4847259  3
   2107   2105   2103   2109     1  0.0000000  4.9162000  2
   2107   2105   2103   2109     1  0.0000000  0.6024960  3
   2105   2103   2109   2110     1  0.0000000  1.6038667  3
   2103   2109   2110   2111     1  0.0000000  1.0460000  3
   2103   2109   2110   2112     1  0.0000000  1.0460000  3
   2103   2109   2110   2113     1  333.9801429  -1.1598843  1
   2103   2109   2110   2113     1  2.9800013  4.4603365  2
   2103   2109   2110   2113     1  29.4700126  0.7878430  3
   2101   2092   2090   2105     1  0.0000000  0.0000000  2
   2098   2097   2099   2101     1  180.0000771  5.6484000  2
   2097   2099   2101   2102     1  180.0000771  5.6484000  2
   2095   2093   2092   2101     1  180.0000771  7.7404000  2
   2095   2097   2099   2101     1  180.0000771  5.6484000  2
   2093   2092   2090   2105     1  0.0000000  0.0000000  2
   2093   2092   2101   2099     1  180.0000771  6.0668000  2
   2093   2092   2101   2102     1  180.0000771  6.0668000  2
   2093   2095   2097   2098     1  180.0000771  9.1002000  2
   2093   2095   2097   2098     1  0.0000000  1.2552000  3
   2093   2095   2097   2099     1  180.0000771  9.1002000  2
   2092   2090   2105   2103     1  0.0000000  0.6508444  3
   2092   2090   2105   2107     1  0.0000000  0.6508444  3
   2092   2093   2095   2097     1  180.0000771  27.8236000  2
   2092   2101   2099   2097     1  180.0000771  5.6484000  2
   2090   2089   2087   2103     1  180.0000771  0.4184000  2
   2090   2089   2087   2103     1  0.0000000  1.6024720  3
   2090   2092   2093   2095     1  180.0000771  7.7404000  2
   2090   2092   2101   2099     1  180.0000771  6.0668000  2
   2090   2092   2101   2102     1  180.0000771  6.0668000  2
   2090   2105   2103   2109     1  0.0000000  0.6508444  3
   2089   2087   2103   2105     1  0.0000000  0.6508444  3
   2089   2087   2103   2109     1  0.0000000  4.9162000  2
   2089   2087   2103   2109     1  0.0000000  0.6024960  3
   2089   2090   2092   2093     1  147.4600633  2.5402277  1
   2089   2090   2092   2093     1  346.4201487  5.4288069  2
   2089   2090   2092   2093     1  38.1300163  -2.0913808  3
   2089   2090   2092   2093     1  348.0001491  -0.6909207  4
   2089   2090   2092   2101     1  0.0000000  0.0000000  2
   2089   2090   2105   2103     1  0.0000000  0.6508444  3
   2089   2090   2105   2107     1  0.0000000  4.9162000  2
   2089   2090   2105   2107     1  0.0000000  0.6024960  3
   2087   2089   2090   2092     1  0.0000000  2.7196000  2
   2087   2089   2090   2092     1  0.0000000  1.6024720  3
   2087   2089   2090   2105     1  180.0000771  0.4184000  2
   2087   2089   2090   2105     1  0.0000000  1.6024720  3
   2087   2103   2105   2090     1  180.0000771  0.8368000  1
   2087   2103   2105   2090     1  180.0000771  1.0460000  2
   2087   2103   2105   2090     1  0.0000000  0.7531200  3
   2087   2103   2105   2107     1  0.0000000  0.6508444  3
   2087   2103   2109   2110     1  0.0000000  1.6038667  3
   2084   2087   2089   2090     1  180.0000771  0.4184000  2
   2084   2087   2089   2090     1  0.0000000  1.6024720  3
   2084   2087   2103   2105     1  180.0000771  0.8368000  1
   2084   2087   2103   2105     1  180.0000771  1.0460000  2
   2084   2087   2103   2105     1  0.0000000  0.7531200  3
   2084   2087   2103   2109     1  0.0000000  0.6508444  3
   2083   2084   2087   2089     1  0.0000000  0.6508444  3
   2083   2084   2087   2103     1  299.6901286  -1.5060182  1
   2083   2084   2087   2103     1  274.1001175  5.1381528  2
   2083   2084   2087   2103     1  342.2101465  3.2676873  3
   2082   2080   2083   2084     1  0.0000000  1.0460000  3
   2081   2080   2083   2084     1  0.0000000  1.0460000  3
   2080   2083   2084   2087     1  0.0000000  1.6038667  3
   2143   2144   2147   2148     1  31.7950936  0.7747973  1
   2143   2144   2147   2148     1  351.9597510  5.2573257  2
   2143   2144   2147   2148     1  357.2476330  1.4847259  3
   2141   2139   2137   2143     1  0.0000000  4.9162000  2
   2141   2139   2137   2143     1  0.0000000  0.6024960  3
   2139   2137   2143   2144     1  0.0000000  1.6038667  3
   2137   2143   2144   2145     1  0.0000000  1.0460000  3
   2137   2143   2144   2146     1  0.0000000  1.0460000  3
   2137   2143   2144   2147     1  333.9801429  -1.1598843  1
   2137   2143   2144   2147     1  2.9800013  4.4603365  2
   2137   2143   2144   2147     1  29.4700126  0.7878430  3
   2136   2122   2120   2139     1  0.0000000  0.0000000  2
   2132   2131   2135   2136     1  180.0000771  20.0832000  2
   2129   2127   2126   2136     1  180.0000771  12.5520000  2
   2129   2131   2135   2136     1  180.0000771  20.0832000  2
   2128   2127   2126   2136     1  180.0000771  12.5520000  2
   2128   2127   2129   2131     1  180.0000771  5.6484000  2
   2127   2126   2136   2135     1  180.0000771  22.8028000  2
   2127   2129   2131   2132     1  180.0000771  6.2760000  2
   2127   2129   2131   2135     1  180.0000771  6.2760000  2
   2126   2127   2129   2131     1  180.0000771  5.6484000  2
   2126   2136   2135   2131     1  180.0000771  17.3636000  2
   2125   2123   2122   2136     1  180.0000771  7.1128000  2
   2125   2126   2127   2128     1  180.0000771  12.5520000  2
   2125   2126   2127   2129     1  180.0000771  12.5520000  2
   2125   2126   2136   2135     1  180.0000771  22.8028000  2
   2123   2122   2120   2139     1  0.0000000  0.0000000  2
   2123   2122   2136   2126     1  180.0000771  6.9036000  2
   2123   2122   2136   2135     1  180.0000771  6.9036000  2
   2123   2125   2126   2127     1  180.0000771  10.6692000  2
   2123   2125   2126   2136     1  180.0000771  10.6692000  2
   2122   2120   2139   2137     1  0.0000000  0.6508444  3
   2122   2120   2139   2141     1  0.0000000  0.6508444  3
   2122   2123   2125   2126     1  180.0000771  41.8400000  2
   2122   2136   2126   2125     1  180.0000771  22.8028000  2
   2122   2136   2126   2127     1  180.0000771  22.8028000  2
   2122   2136   2135   2131     1  180.0000771  17.3636000  2
   2120   2119   2117   2137     1  180.0000771  0.4184000  2
   2120   2119   2117   2137     1  0.0000000  1.6024720  3
   2120   2122   2123   2125     1  180.0000771  7.1128000  2
   2120   2122   2136   2126     1  180.0000771  6.9036000  2
   2120   2122   2136   2135     1  180.0000771  6.9036000  2
   2120   2139   2137   2143     1  0.0000000  0.6508444  3
   2119   2117   2137   2139     1  0.0000000  0.6508444  3
   2119   2117   2137   2143     1  0.0000000  4.9162000  2
   2119   2117   2137   2143     1  0.0000000  0.6024960  3
   2119   2120   2122   2123     1  287.1401229  -3.8169126  1
   2119   2120   2122   2123     1  331.9701422  5.7662424  2
   2119   2120   2122   2123     1  27.7600119  -1.7805138  3
   2119   2120   2122   2123     1  328.1301407  0.2514082  4
   2119   2120   2122   2136     1  0.0000000  0.0000000  2
   2119   2120   2139   2137     1  0.0000000  0.6508444  3
   2119   2120   2139   2141     1  0.0000000  4.9162000  2
   2119   2120   2139   2141     1  0.0000000  0.6024960  3
   2117   2119   2120   2122     1  0.0000000  2.7196000  2
   2117   2119   2120   2122     1  0.0000000  1.6024720  3
   2117   2119   2120   2139     1  180.0000771  0.4184000  2
   2117   2119   2120   2139     1  0.0000000  1.6024720  3
   2117   2137   2139   2120     1  180.0000771  0.8368000  1
   2117   2137   2139   2120     1  180.0000771  1.0460000  2
   2117   2137   2139   2120     1  0.0000000  0.7531200  3
   2117   2137   2139   2141     1  0.0000000  0.6508444  3
   2117   2137   2143   2144     1  0.0000000  1.6038667  3
   2114   2117   2119   2120     1  180.0000771  0.4184000  2
   2114   2117   2119   2120     1  0.0000000  1.6024720  3
   2114   2117   2137   2139     1  180.0000771  0.8368000  1
   2114   2117   2137   2139     1  180.0000771  1.0460000  2
   2114   2117   2137   2139     1  0.0000000  0.7531200  3
   2114   2117   2137   2143     1  0.0000000  0.6508444  3
   2113   2114   2117   2119     1  0.0000000  0.6508444  3
   2113   2114   2117   2137     1  299.6901286  -1.5060182  1
   2113   2114   2117   2137     1  274.1001175  5.1381528  2
   2113   2114   2117   2137     1  342.2101465  3.2676873  3
   2112   2110   2113   2114     1  0.0000000  1.0460000  3
   2111   2110   2113   2114     1  0.0000000  1.0460000  3
   2110   2113   2114   2117     1  0.0000000  1.6038667  3
   2176   2177   2180   2181     1  31.7950936  0.7747973  1
   2176   2177   2180   2181     1  351.9597510  5.2573257  2
   2176   2177   2180   2181     1  357.2476330  1.4847259  3
   2174   2172   2170   2176     1  0.0000000  4.9162000  2
   2174   2172   2170   2176     1  0.0000000  0.6024960  3
   2172   2170   2176   2177     1  0.0000000  1.6038667  3
   2170   2176   2177   2178     1  0.0000000  1.0460000  3
   2170   2176   2177   2179     1  0.0000000  1.0460000  3
   2170   2176   2177   2180     1  333.9801429  -1.1598843  1
   2170   2176   2177   2180     1  2.9800013  4.4603365  2
   2170   2176   2177   2180     1  29.4700126  0.7878430  3
   2169   2156   2154   2172     1  0.0000000  0.0000000  2
   2165   2161   2160   2169     1  180.0000771  14.6440000  2
   2165   2166   2168   2169     1  180.0000771  28.4512000  2
   2162   2161   2160   2169     1  180.0000771  14.6440000  2
   2162   2161   2165   2166     1  180.0000771  20.0832000  2
   2161   2160   2169   2168     1  180.0000771  22.8028000  2
   2161   2165   2166   2168     1  180.0000771  28.4512000  2
   2160   2161   2165   2166     1  180.0000771  20.0832000  2
   2160   2169   2168   2166     1  180.0000771  17.3636000  2
   2159   2157   2156   2169     1  180.0000771  7.1128000  2
   2159   2160   2161   2162     1  180.0000771  14.6440000  2
   2159   2160   2161   2165     1  180.0000771  14.6440000  2
   2159   2160   2169   2168     1  180.0000771  22.8028000  2
   2157   2156   2154   2172     1  0.0000000  0.0000000  2
   2157   2156   2169   2160     1  180.0000771  6.9036000  2
   2157   2156   2169   2168     1  180.0000771  6.9036000  2
   2157   2159   2160   2161     1  180.0000771  10.6692000  2
   2157   2159   2160   2169     1  180.0000771  10.6692000  2
   2156   2154   2172   2170     1  0.0000000  0.6508444  3
   2156   2154   2172   2174     1  0.0000000  0.6508444  3
   2156   2157   2159   2160     1  180.0000771  41.8400000  2
   2156   2169   2160   2159     1  180.0000771  22.8028000  2
   2156   2169   2160   2161     1  180.0000771  22.8028000  2
   2156   2169   2168   2166     1  180.0000771  17.3636000  2
   2154   2153   2151   2170     1  180.0000771  0.4184000  2
   2154   2153   2151   2170     1  0.0000000  1.6024720  3
   2154   2156   2157   2159     1  180.0000771  7.1128000  2
   2154   2156   2169   2160     1  180.0000771  6.9036000  2
   2154   2156   2169   2168     1  180.0000771  6.9036000  2
   2154   2172   2170   2176     1  0.0000000  0.6508444  3
   2153   2151   2170   2172     1  0.0000000  0.6508444  3
   2153   2151   2170   2176     1  0.0000000  4.9162000  2
   2153   2151   2170   2176     1  0.0000000  0.6024960  3
   2153   2154   2156   2157     1  98.2900423  3.1435856  1
   2153   2154   2156   2157     1  328.5601409  4.5857268  2
   2153   2154   2156   2157     1  50.5200217  -1.7297325  3
   2153   2154   2156   2157     1  40.9900176  0.2709140  4
   2153   2154   2156   2169     1  0.0000000  0.0000000  2
   2153   2154   2172   2170     1  0.0000000  0.6508444  3
   2153   2154   2172   2174     1  0.0000000  4.9162000  2
   2153   2154   2172   2174     1  0.0000000  0.6024960  3
   2151   2153   2154   2156     1  0.0000000  2.7196000  2
   2151   2153   2154   2156     1  0.0000000  1.6024720  3
   2151   2153   2154   2172     1  180.0000771  0.4184000  2
   2151   2153   2154   2172     1  0.0000000  1.6024720  3
   2151   2170   2172   2154     1  180.0000771  0.8368000  1
   2151   2170   2172   2154     1  180.0000771  1.0460000  2
   2151   2170   2172   2154     1  0.0000000  0.7531200  3
   2151   2170   2172   2174     1  0.0000000  0.6508444  3
   2151   2170   2176   2177     1  0.0000000  1.6038667  3
   2148   2151   2153   2154     1  180.0000771  0.4184000  2
   2148   2151   2153   2154     1  0.0000000  1.6024720  3
   2148   2151   2170   2172     1  180.0000771  0.8368000  1
   2148   2151   2170   2172     1  180.0000771  1.0460000  2
   2148   2151   2170   2172     1  0.0000000  0.7531200  3
   2148   2151   2170   2176     1  0.0000000  0.6508444  3
   2147   2148   2151   2153     1  0.0000000  0.6508444  3
   2147   2148   2151   2170     1  299.6901286  -1.5060182  1
   2147   2148   2151   2170     1  274.1001175  5.1381528  2
   2147   2148   2151   2170     1  342.2101465  3.2676873  3
   2146   2144   2147   2148     1  0.0000000  1.0460000  3
   2145   2144   2147   2148     1  0.0000000  1.0460000  3
   2144   2147   2148   2151     1  0.0000000  1.6038667  3
   2206   2207   2210   2211     1  31.7950936  0.7747973  1
   2206   2207   2210   2211     1  351.9597510  5.2573257  2
   2206   2207   2210   2211     1  357.2476330  1.4847259  3
   2204   2202   2200   2206     1  0.0000000  4.9162000  2
   2204   2202   2200   2206     1  0.0000000  0.6024960  3
   2202   2200   2206   2207     1  0.0000000  1.6038667  3
   2200   2206   2207   2208     1  0.0000000  1.0460000  3
   2200   2206   2207   2209     1  0.0000000  1.0460000  3
   2200   2206   2207   2210     1  333.9801429  -1.1598843  1
   2200   2206   2207   2210     1  2.9800013  4.4603365  2
   2200   2206   2207   2210     1  29.4700126  0.7878430  3
   2198   2189   2187   2202     1  0.0000000  0.0000000  2
   2195   2194   2196   2198     1  180.0000771  5.6484000  2
   2194   2196   2198   2199     1  180.0000771  5.6484000  2
   2192   2190   2189   2198     1  180.0000771  7.7404000  2
   2192   2194   2196   2198     1  180.0000771  5.6484000  2
   2190   2189   2187   2202     1  0.0000000  0.0000000  2
   2190   2189   2198   2196     1  180.0000771  6.0668000  2
   2190   2189   2198   2199     1  180.0000771  6.0668000  2
   2190   2192   2194   2195     1  180.0000771  9.1002000  2
   2190   2192   2194   2195     1  0.0000000  1.2552000  3
   2190   2192   2194   2196     1  180.0000771  9.1002000  2
   2189   2187   2202   2200     1  0.0000000  0.6508444  3
   2189   2187   2202   2204     1  0.0000000  0.6508444  3
   2189   2190   2192   2194     1  180.0000771  27.8236000  2
   2189   2198   2196   2194     1  180.0000771  5.6484000  2
   2187   2186   2184   2200     1  180.0000771  0.4184000  2
   2187   2186   2184   2200     1  0.0000000  1.6024720  3
   2187   2189   2190   2192     1  180.0000771  7.7404000  2
   2187   2189   2198   2196     1  180.0000771  6.0668000  2
   2187   2189   2198   2199     1  180.0000771  6.0668000  2
   2187   2202   2200   2206     1  0.0000000  0.6508444  3
   2186   2184   2200   2202     1  0.0000000  0.6508444  3
   2186   2184   2200   2206     1  0.0000000  4.9162000  2
   2186   2184   2200   2206     1  0.0000000  0.6024960  3
   2186   2187   2189   2190     1  147.4600633  2.5402277  1
   2186   2187   2189   2190     1  346.4201487  5.4288069  2
   2186   2187   2189   2190     1  38.1300163  -2.0913808  3
   2186   2187   2189   2190     1  348.0001491  -0.6909207  4
   2186   2187   2189   2198     1  0.0000000  0.0000000  2
   2186   2187   2202   2200     1  0.0000000  0.6508444  3
   2186   2187   2202   2204     1  0.0000000  4.9162000  2
   2186   2187   2202   2204     1  0.0000000  0.6024960  3
   2184   2186   2187   2189     1  0.0000000  2.7196000  2
   2184   2186   2187   2189     1  0.0000000  1.6024720  3
   2184   2186   2187   2202     1  180.0000771  0.4184000  2
   2184   2186   2187   2202     1  0.0000000  1.6024720  3
   2184   2200   2202   2187     1  180.0000771  0.8368000  1
   2184   2200   2202   2187     1  180.0000771  1.0460000  2
   2184   2200   2202   2187     1  0.0000000  0.7531200  3
   2184   2200   2202   2204     1  0.0000000  0.6508444  3
   2184   2200   2206   2207     1  0.0000000  1.6038667  3
   2181   2184   2186   2187     1  180.0000771  0.4184000  2
   2181   2184   2186   2187     1  0.0000000  1.6024720  3
   2181   2184   2200   2202     1  180.0000771  0.8368000  1
   2181   2184   2200   2202     1  180.0000771  1.0460000  2
   2181   2184   2200   2202     1  0.0000000  0.7531200  3
   2181   2184   2200   2206     1  0.0000000  0.6508444  3
   2180   2181   2184   2186     1  0.0000000  0.6508444  3
   2180   2181   2184   2200     1  299.6901286  -1.5060182  1
   2180   2181   2184   2200     1  274.1001175  5.1381528  2
   2180   2181   2184   2200     1  342.2101465  3.2676873  3
   2179   2177   2180   2181     1  0.0000000  1.0460000  3
   2178   2177   2180   2181     1  0.0000000  1.0460000  3
   2177   2180   2181   2184     1  0.0000000  1.6038667  3
   2240   2241   2244   2245     1  31.7950936  0.7747973  1
   2240   2241   2244   2245     1  351.9597510  5.2573257  2
   2240   2241   2244   2245     1  357.2476330  1.4847259  3
   2238   2236   2234   2240     1  0.0000000  4.9162000  2
   2238   2236   2234   2240     1  0.0000000  0.6024960  3
   2236   2234   2240   2241     1  0.0000000  1.6038667  3
   2234   2240   2241   2242     1  0.0000000  1.0460000  3
   2234   2240   2241   2243     1  0.0000000  1.0460000  3
   2234   2240   2241   2244     1  333.9801429  -1.1598843  1
   2234   2240   2241   2244     1  2.9800013  4.4603365  2
   2234   2240   2241   2244     1  29.4700126  0.7878430  3
   2233   2219   2217   2236     1  0.0000000  0.0000000  2
   2229   2228   2232   2233     1  180.0000771  20.0832000  2
   2226   2224   2223   2233     1  180.0000771  12.5520000  2
   2226   2228   2232   2233     1  180.0000771  20.0832000  2
   2225   2224   2223   2233     1  180.0000771  12.5520000  2
   2225   2224   2226   2228     1  180.0000771  5.6484000  2
   2224   2223   2233   2232     1  180.0000771  22.8028000  2
   2224   2226   2228   2229     1  180.0000771  6.2760000  2
   2224   2226   2228   2232     1  180.0000771  6.2760000  2
   2223   2224   2226   2228     1  180.0000771  5.6484000  2
   2223   2233   2232   2228     1  180.0000771  17.3636000  2
   2222   2220   2219   2233     1  180.0000771  7.1128000  2
   2222   2223   2224   2225     1  180.0000771  12.5520000  2
   2222   2223   2224   2226     1  180.0000771  12.5520000  2
   2222   2223   2233   2232     1  180.0000771  22.8028000  2
   2220   2219   2217   2236     1  0.0000000  0.0000000  2
   2220   2219   2233   2223     1  180.0000771  6.9036000  2
   2220   2219   2233   2232     1  180.0000771  6.9036000  2
   2220   2222   2223   2224     1  180.0000771  10.6692000  2
   2220   2222   2223   2233     1  180.0000771  10.6692000  2
   2219   2217   2236   2234     1  0.0000000  0.6508444  3
   2219   2217   2236   2238     1  0.0000000  0.6508444  3
   2219   2220   2222   2223     1  180.0000771  41.8400000  2
   2219   2233   2223   2222     1  180.0000771  22.8028000  2
   2219   2233   2223   2224     1  180.0000771  22.8028000  2
   2219   2233   2232   2228     1  180.0000771  17.3636000  2
   2217   2216   2214   2234     1  180.0000771  0.4184000  2
   2217   2216   2214   2234     1  0.0000000  1.6024720  3
   2217   2219   2220   2222     1  180.0000771  7.1128000  2
   2217   2219   2233   2223     1  180.0000771  6.9036000  2
   2217   2219   2233   2232     1  180.0000771  6.9036000  2
   2217   2236   2234   2240     1  0.0000000  0.6508444  3
   2216   2214   2234   2236     1  0.0000000  0.6508444  3
   2216   2214   2234   2240     1  0.0000000  4.9162000  2
   2216   2214   2234   2240     1  0.0000000  0.6024960  3
   2216   2217   2219   2220     1  287.1401229  -3.8169126  1
   2216   2217   2219   2220     1  331.9701422  5.7662424  2
   2216   2217   2219   2220     1  27.7600119  -1.7805138  3
   2216   2217   2219   2220     1  328.1301407  0.2514082  4
   2216   2217   2219   2233     1  0.0000000  0.0000000  2
   2216   2217   2236   2234     1  0.0000000  0.6508444  3
   2216   2217   2236   2238     1  0.0000000  4.9162000  2
   2216   2217   2236   2238     1  0.0000000  0.6024960  3
   2214   2216   2217   2219     1  0.0000000  2.7196000  2
   2214   2216   2217   2219     1  0.0000000  1.6024720  3
   2214   2216   2217   2236     1  180.0000771  0.4184000  2
   2214   2216   2217   2236     1  0.0000000  1.6024720  3
   2214   2234   2236   2217     1  180.0000771  0.8368000  1
   2214   2234   2236   2217     1  180.0000771  1.0460000  2
   2214   2234   2236   2217     1  0.0000000  0.7531200  3
   2214   2234   2236   2238     1  0.0000000  0.6508444  3
   2214   2234   2240   2241     1  0.0000000  1.6038667  3
   2211   2214   2216   2217     1  180.0000771  0.4184000  2
   2211   2214   2216   2217     1  0.0000000  1.6024720  3
   2211   2214   2234   2236     1  180.0000771  0.8368000  1
   2211   2214   2234   2236     1  180.0000771  1.0460000  2
   2211   2214   2234   2236     1  0.0000000  0.7531200  3
   2211   2214   2234   2240     1  0.0000000  0.6508444  3
   2210   2211   2214   2216     1  0.0000000  0.6508444  3
   2210   2211   2214   2234     1  299.6901286  -1.5060182  1
   2210   2211   2214   2234     1  274.1001175  5.1381528  2
   2210   2211   2214   2234     1  342.2101465  3.2676873  3
   2209   2207   2210   2211     1  0.0000000  1.0460000  3
   2208   2207   2210   2211     1  0.0000000  1.0460000  3
   2207   2210   2211   2214     1  0.0000000  1.6038667  3
   2270   2271   2274   2275     1  31.7950936  0.7747973  1
   2270   2271   2274   2275     1  351.9597510  5.2573257  2
   2270   2271   2274   2275     1  357.2476330  1.4847259  3
   2268   2266   2264   2270     1  0.0000000  4.9162000  2
   2268   2266   2264   2270     1  0.0000000  0.6024960  3
   2266   2264   2270   2271     1  0.0000000  1.6038667  3
   2264   2270   2271   2272     1  0.0000000  1.0460000  3
   2264   2270   2271   2273     1  0.0000000  1.0460000  3
   2264   2270   2271   2274     1  333.9801429  -1.1598843  1
   2264   2270   2271   2274     1  2.9800013  4.4603365  2
   2264   2270   2271   2274     1  29.4700126  0.7878430  3
   2262   2253   2251   2266     1  0.0000000  0.0000000  2
   2259   2258   2260   2262     1  180.0000771  5.6484000  2
   2258   2260   2262   2263     1  180.0000771  5.6484000  2
   2256   2254   2253   2262     1  180.0000771  7.7404000  2
   2256   2258   2260   2262     1  180.0000771  5.6484000  2
   2254   2253   2251   2266     1  0.0000000  0.0000000  2
   2254   2253   2262   2260     1  180.0000771  6.0668000  2
   2254   2253   2262   2263     1  180.0000771  6.0668000  2
   2254   2256   2258   2259     1  180.0000771  9.1002000  2
   2254   2256   2258   2259     1  0.0000000  1.2552000  3
   2254   2256   2258   2260     1  180.0000771  9.1002000  2
   2253   2251   2266   2264     1  0.0000000  0.6508444  3
   2253   2251   2266   2268     1  0.0000000  0.6508444  3
   2253   2254   2256   2258     1  180.0000771  27.8236000  2
   2253   2262   2260   2258     1  180.0000771  5.6484000  2
   2251   2250   2248   2264     1  180.0000771  0.4184000  2
   2251   2250   2248   2264     1  0.0000000  1.6024720  3
   2251   2253   2254   2256     1  180.0000771  7.7404000  2
   2251   2253   2262   2260     1  180.0000771  6.0668000  2
   2251   2253   2262   2263     1  180.0000771  6.0668000  2
   2251   2266   2264   2270     1  0.0000000  0.6508444  3
   2250   2248   2264   2266     1  0.0000000  0.6508444  3
   2250   2248   2264   2270     1  0.0000000  4.9162000  2
   2250   2248   2264   2270     1  0.0000000  0.6024960  3
   2250   2251   2253   2254     1  147.4600633  2.5402277  1
   2250   2251   2253   2254     1  346.4201487  5.4288069  2
   2250   2251   2253   2254     1  38.1300163  -2.0913808  3
   2250   2251   2253   2254     1  348.0001491  -0.6909207  4
   2250   2251   2253   2262     1  0.0000000  0.0000000  2
   2250   2251   2266   2264     1  0.0000000  0.6508444  3
   2250   2251   2266   2268     1  0.0000000  4.9162000  2
   2250   2251   2266   2268     1  0.0000000  0.6024960  3
   2248   2250   2251   2253     1  0.0000000  2.7196000  2
   2248   2250   2251   2253     1  0.0000000  1.6024720  3
   2248   2250   2251   2266     1  180.0000771  0.4184000  2
   2248   2250   2251   2266     1  0.0000000  1.6024720  3
   2248   2264   2266   2251     1  180.0000771  0.8368000  1
   2248   2264   2266   2251     1  180.0000771  1.0460000  2
   2248   2264   2266   2251     1  0.0000000  0.7531200  3
   2248   2264   2266   2268     1  0.0000000  0.6508444  3
   2248   2264   2270   2271     1  0.0000000  1.6038667  3
   2245   2248   2250   2251     1  180.0000771  0.4184000  2
   2245   2248   2250   2251     1  0.0000000  1.6024720  3
   2245   2248   2264   2266     1  180.0000771  0.8368000  1
   2245   2248   2264   2266     1  180.0000771  1.0460000  2
   2245   2248   2264   2266     1  0.0000000  0.7531200  3
   2245   2248   2264   2270     1  0.0000000  0.6508444  3
   2244   2245   2248   2250     1  0.0000000  0.6508444  3
   2244   2245   2248   2264     1  299.6901286  -1.5060182  1
   2244   2245   2248   2264     1  274.1001175  5.1381528  2
   2244   2245   2248   2264     1  342.2101465  3.2676873  3
   2243   2241   2244   2245     1  0.0000000  1.0460000  3
   2242   2241   2244   2245     1  0.0000000  1.0460000  3
   2241   2244   2245   2248     1  0.0000000  1.6038667  3
   2301   2302   2305   2306     1  31.7950936  0.7747973  1
   2301   2302   2305   2306     1  351.9597510  5.2573257  2
   2301   2302   2305   2306     1  357.2476330  1.4847259  3
   2299   2297   2295   2301     1  0.0000000  4.9162000  2
   2299   2297   2295   2301     1  0.0000000  0.6024960  3
   2297   2295   2301   2302     1  0.0000000  1.6038667  3
   2295   2301   2302   2303     1  0.0000000  1.0460000  3
   2295   2301   2302   2304     1  0.0000000  1.0460000  3
   2295   2301   2302   2305     1  333.9801429  -1.1598843  1
   2295   2301   2302   2305     1  2.9800013  4.4603365  2
   2295   2301   2302   2305     1  29.4700126  0.7878430  3
   2293   2283   2281   2297     1  0.0000000  0.0000000  2
   2289   2288   2292   2293     1  180.0000771  20.0832000  2
   2288   2292   2293   2294     1  180.0000771  16.7360000  2
   2286   2284   2283   2293     1  180.0000771  7.7404000  2
   2286   2288   2292   2293     1  180.0000771  20.0832000  2
   2284   2283   2281   2297     1  0.0000000  0.0000000  2
   2284   2283   2293   2292     1  180.0000771  6.0668000  2
   2284   2283   2293   2294     1  180.0000771  6.0668000  2
   2284   2286   2288   2289     1  180.0000771  10.6692000  2
   2284   2286   2288   2292     1  180.0000771  10.6692000  2
   2283   2281   2297   2295     1  0.0000000  0.6508444  3
   2283   2281   2297   2299     1  0.0000000  0.6508444  3
   2283   2284   2286   2288     1  180.0000771  27.8236000  2
   2283   2293   2292   2288     1  180.0000771  16.7360000  2
   2281   2280   2278   2295     1  180.0000771  0.4184000  2
   2281   2280   2278   2295     1  0.0000000  1.6024720  3
   2281   2283   2284   2286     1  180.0000771  7.7404000  2
   2281   2283   2293   2292     1  180.0000771  6.0668000  2
   2281   2283   2293   2294     1  180.0000771  6.0668000  2
   2281   2297   2295   2301     1  0.0000000  0.6508444  3
   2280   2278   2295   2297     1  0.0000000  0.6508444  3
   2280   2278   2295   2301     1  0.0000000  4.9162000  2
   2280   2278   2295   2301     1  0.0000000  0.6024960  3
   2280   2281   2283   2284     1  111.1800474  2.8397101  1
   2280   2281   2283   2284     1  340.2301459  5.0000223  2
   2280   2281   2283   2284     1  28.2000121  -3.7349982  3
   2280   2281   2283   2284     1  355.0801519  -1.2977304  4
   2280   2281   2283   2293     1  0.0000000  0.0000000  2
   2280   2281   2297   2295     1  0.0000000  0.6508444  3
   2280   2281   2297   2299     1  0.0000000  4.9162000  2
   2280   2281   2297   2299     1  0.0000000  0.6024960  3
   2278   2280   2281   2283     1  0.0000000  2.7196000  2
   2278   2280   2281   2283     1  0.0000000  1.6024720  3
   2278   2280   2281   2297     1  180.0000771  0.4184000  2
   2278   2280   2281   2297     1  0.0000000  1.6024720  3
   2278   2295   2297   2281     1  180.0000771  0.8368000  1
   2278   2295   2297   2281     1  180.0000771  1.0460000  2
   2278   2295   2297   2281     1  0.0000000  0.7531200  3
   2278   2295   2297   2299     1  0.0000000  0.6508444  3
   2278   2295   2301   2302     1  0.0000000  1.6038667  3
   2275   2278   2280   2281     1  180.0000771  0.4184000  2
   2275   2278   2280   2281     1  0.0000000  1.6024720  3
   2275   2278   2295   2297     1  180.0000771  0.8368000  1
   2275   2278   2295   2297     1  180.0000771  1.0460000  2
   2275   2278   2295   2297     1  0.0000000  0.7531200  3
   2275   2278   2295   2301     1  0.0000000  0.6508444  3
   2274   2275   2278   2280     1  0.0000000  0.6508444  3
   2274   2275   2278   2295     1  299.6901286  -1.5060182  1
   2274   2275   2278   2295     1  274.1001175  5.1381528  2
   2274   2275   2278   2295     1  342.2101465  3.2676873  3
   2273   2271   2274   2275     1  0.0000000  1.0460000  3
   2272   2271   2274   2275     1  0.0000000  1.0460000  3
   2271   2274   2275   2278     1  0.0000000  1.6038667  3
   2335   2336   2339   2340     1  31.7950936  0.7747973  1
   2335   2336   2339   2340     1  351.9597510  5.2573257  2
   2335   2336   2339   2340     1  357.2476330  1.4847259  3
   2333   2331   2329   2335     1  0.0000000  4.9162000  2
   2333   2331   2329   2335     1  0.0000000  0.6024960  3
   2331   2329   2335   2336     1  0.0000000  1.6038667  3
   2329   2335   2336   2337     1  0.0000000  1.0460000  3
   2329   2335   2336   2338     1  0.0000000  1.0460000  3
   2329   2335   2336   2339     1  333.9801429  -1.1598843  1
   2329   2335   2336   2339     1  2.9800013  4.4603365  2
   2329   2335   2336   2339     1  29.4700126  0.7878430  3
   2328   2314   2312   2331     1  0.0000000  0.0000000  2
   2324   2323   2327   2328     1  180.0000771  20.0832000  2
   2321   2319   2318   2328     1  180.0000771  12.5520000  2
   2321   2323   2327   2328     1  180.0000771  20.0832000  2
   2320   2319   2318   2328     1  180.0000771  12.5520000  2
   2320   2319   2321   2323     1  180.0000771  5.6484000  2
   2319   2318   2328   2327     1  180.0000771  22.8028000  2
   2319   2321   2323   2324     1  180.0000771  6.2760000  2
   2319   2321   2323   2327     1  180.0000771  6.2760000  2
   2318   2319   2321   2323     1  180.0000771  5.6484000  2
   2318   2328   2327   2323     1  180.0000771  17.3636000  2
   2317   2315   2314   2328     1  180.0000771  7.1128000  2
   2317   2318   2319   2320     1  180.0000771  12.5520000  2
   2317   2318   2319   2321     1  180.0000771  12.5520000  2
   2317   2318   2328   2327     1  180.0000771  22.8028000  2
   2315   2314   2312   2331     1  0.0000000  0.0000000  2
   2315   2314   2328   2318     1  180.0000771  6.9036000  2
   2315   2314   2328   2327     1  180.0000771  6.9036000  2
   2315   2317   2318   2319     1  180.0000771  10.6692000  2
   2315   2317   2318   2328     1  180.0000771  10.6692000  2
   2314   2312   2331   2329     1  0.0000000  0.6508444  3
   2314   2312   2331   2333     1  0.0000000  0.6508444  3
   2314   2315   2317   2318     1  180.0000771  41.8400000  2
   2314   2328   2318   2317     1  180.0000771  22.8028000  2
   2314   2328   2318   2319     1  180.0000771  22.8028000  2
   2314   2328   2327   2323     1  180.0000771  17.3636000  2
   2312   2311   2309   2329     1  180.0000771  0.4184000  2
   2312   2311   2309   2329     1  0.0000000  1.6024720  3
   2312   2314   2315   2317     1  180.0000771  7.1128000  2
   2312   2314   2328   2318     1  180.0000771  6.9036000  2
   2312   2314   2328   2327     1  180.0000771  6.9036000  2
   2312   2331   2329   2335     1  0.0000000  0.6508444  3
   2311   2309   2329   2331     1  0.0000000  0.6508444  3
   2311   2309   2329   2335     1  0.0000000  4.9162000  2
   2311   2309   2329   2335     1  0.0000000  0.6024960  3
   2311   2312   2314   2315     1  287.1401229  -3.8169126  1
   2311   2312   2314   2315     1  331.9701422  5.7662424  2
   2311   2312   2314   2315     1  27.7600119  -1.7805138  3
   2311   2312   2314   2315     1  328.1301407  0.2514082  4
   2311   2312   2314   2328     1  0.0000000  0.0000000  2
   2311   2312   2331   2329     1  0.0000000  0.6508444  3
   2311   2312   2331   2333     1  0.0000000  4.9162000  2
   2311   2312   2331   2333     1  0.0000000  0.6024960  3
   2309   2311   2312   2314     1  0.0000000  2.7196000  2
   2309   2311   2312   2314     1  0.0000000  1.6024720  3
   2309   2311   2312   2331     1  180.0000771  0.4184000  2
   2309   2311   2312   2331     1  0.0000000  1.6024720  3
   2309   2329   2331   2312     1  180.0000771  0.8368000  1
   2309   2329   2331   2312     1  180.0000771  1.0460000  2
   2309   2329   2331   2312     1  0.0000000  0.7531200  3
   2309   2329   2331   2333     1  0.0000000  0.6508444  3
   2309   2329   2335   2336     1  0.0000000  1.6038667  3
   2306   2309   2311   2312     1  180.0000771  0.4184000  2
   2306   2309   2311   2312     1  0.0000000  1.6024720  3
   2306   2309   2329   2331     1  180.0000771  0.8368000  1
   2306   2309   2329   2331     1  180.0000771  1.0460000  2
   2306   2309   2329   2331     1  0.0000000  0.7531200  3
   2306   2309   2329   2335     1  0.0000000  0.6508444  3
   2305   2306   2309   2311     1  0.0000000  0.6508444  3
   2305   2306   2309   2329     1  299.6901286  -1.5060182  1
   2305   2306   2309   2329     1  274.1001175  5.1381528  2
   2305   2306   2309   2329     1  342.2101465  3.2676873  3
   2304   2302   2305   2306     1  0.0000000  1.0460000  3
   2303   2302   2305   2306     1  0.0000000  1.0460000  3
   2302   2305   2306   2309     1  0.0000000  1.6038667  3
   2365   2366   2369   2370     1  31.7950936  0.7747973  1
   2365   2366   2369   2370     1  351.9597510  5.2573257  2
   2365   2366   2369   2370     1  357.2476330  1.4847259  3
   2363   2361   2359   2365     1  0.0000000  4.9162000  2
   2363   2361   2359   2365     1  0.0000000  0.6024960  3
   2361   2359   2365   2366     1  0.0000000  1.6038667  3
   2359   2365   2366   2367     1  0.0000000  1.0460000  3
   2359   2365   2366   2368     1  0.0000000  1.0460000  3
   2359   2365   2366   2369     1  333.9801429  -1.1598843  1
   2359   2365   2366   2369     1  2.9800013  4.4603365  2
   2359   2365   2366   2369     1  29.4700126  0.7878430  3
   2357   2348   2346   2361     1  0.0000000  0.0000000  2
   2354   2353   2355   2357     1  180.0000771  5.6484000  2
   2353   2355   2357   2358     1  180.0000771  5.6484000  2
   2351   2349   2348   2357     1  180.0000771  7.7404000  2
   2351   2353   2355   2357     1  180.0000771  5.6484000  2
   2349   2348   2346   2361     1  0.0000000  0.0000000  2
   2349   2348   2357   2355     1  180.0000771  6.0668000  2
   2349   2348   2357   2358     1  180.0000771  6.0668000  2
   2349   2351   2353   2354     1  180.0000771  9.1002000  2
   2349   2351   2353   2354     1  0.0000000  1.2552000  3
   2349   2351   2353   2355     1  180.0000771  9.1002000  2
   2348   2346   2361   2359     1  0.0000000  0.6508444  3
   2348   2346   2361   2363     1  0.0000000  0.6508444  3
   2348   2349   2351   2353     1  180.0000771  27.8236000  2
   2348   2357   2355   2353     1  180.0000771  5.6484000  2
   2346   2345   2343   2359     1  180.0000771  0.4184000  2
   2346   2345   2343   2359     1  0.0000000  1.6024720  3
   2346   2348   2349   2351     1  180.0000771  7.7404000  2
   2346   2348   2357   2355     1  180.0000771  6.0668000  2
   2346   2348   2357   2358     1  180.0000771  6.0668000  2
   2346   2361   2359   2365     1  0.0000000  0.6508444  3
   2345   2343   2359   2361     1  0.0000000  0.6508444  3
   2345   2343   2359   2365     1  0.0000000  4.9162000  2
   2345   2343   2359   2365     1  0.0000000  0.6024960  3
   2345   2346   2348   2349     1  147.4600633  2.5402277  1
   2345   2346   2348   2349     1  346.4201487  5.4288069  2
   2345   2346   2348   2349     1  38.1300163  -2.0913808  3
   2345   2346   2348   2349     1  348.0001491  -0.6909207  4
   2345   2346   2348   2357     1  0.0000000  0.0000000  2
   2345   2346   2361   2359     1  0.0000000  0.6508444  3
   2345   2346   2361   2363     1  0.0000000  4.9162000  2
   2345   2346   2361   2363     1  0.0000000  0.6024960  3
   2343   2345   2346   2348     1  0.0000000  2.7196000  2
   2343   2345   2346   2348     1  0.0000000  1.6024720  3
   2343   2345   2346   2361     1  180.0000771  0.4184000  2
   2343   2345   2346   2361     1  0.0000000  1.6024720  3
   2343   2359   2361   2346     1  180.0000771  0.8368000  1
   2343   2359   2361   2346     1  180.0000771  1.0460000  2
   2343   2359   2361   2346     1  0.0000000  0.7531200  3
   2343   2359   2361   2363     1  0.0000000  0.6508444  3
   2343   2359   2365   2366     1  0.0000000  1.6038667  3
   2340   2343   2345   2346     1  180.0000771  0.4184000  2
   2340   2343   2345   2346     1  0.0000000  1.6024720  3
   2340   2343   2359   2361     1  180.0000771  0.8368000  1
   2340   2343   2359   2361     1  180.0000771  1.0460000  2
   2340   2343   2359   2361     1  0.0000000  0.7531200  3
   2340   2343   2359   2365     1  0.0000000  0.6508444  3
   2339   2340   2343   2345     1  0.0000000  0.6508444  3
   2339   2340   2343   2359     1  299.6901286  -1.5060182  1
   2339   2340   2343   2359     1  274.1001175  5.1381528  2
   2339   2340   2343   2359     1  342.2101465  3.2676873  3
   2338   2336   2339   2340     1  0.0000000  1.0460000  3
   2337   2336   2339   2340     1  0.0000000  1.0460000  3
   2336   2339   2340   2343     1  0.0000000  1.6038667  3
   2398   2399   2402   2403     1  31.7950936  0.7747973  1
   2398   2399   2402   2403     1  351.9597510  5.2573257  2
   2398   2399   2402   2403     1  357.2476330  1.4847259  3
   2396   2394   2392   2398     1  0.0000000  4.9162000  2
   2396   2394   2392   2398     1  0.0000000  0.6024960  3
   2394   2392   2398   2399     1  0.0000000  1.6038667  3
   2392   2398   2399   2400     1  0.0000000  1.0460000  3
   2392   2398   2399   2401     1  0.0000000  1.0460000  3
   2392   2398   2399   2402     1  333.9801429  -1.1598843  1
   2392   2398   2399   2402     1  2.9800013  4.4603365  2
   2392   2398   2399   2402     1  29.4700126  0.7878430  3
   2391   2378   2376   2394     1  0.0000000  0.0000000  2
   2387   2383   2382   2391     1  180.0000771  14.6440000  2
   2387   2388   2390   2391     1  180.0000771  28.4512000  2
   2384   2383   2382   2391     1  180.0000771  14.6440000  2
   2384   2383   2387   2388     1  180.0000771  20.0832000  2
   2383   2382   2391   2390     1  180.0000771  22.8028000  2
   2383   2387   2388   2390     1  180.0000771  28.4512000  2
   2382   2383   2387   2388     1  180.0000771  20.0832000  2
   2382   2391   2390   2388     1  180.0000771  17.3636000  2
   2381   2379   2378   2391     1  180.0000771  7.1128000  2
   2381   2382   2383   2384     1  180.0000771  14.6440000  2
   2381   2382   2383   2387     1  180.0000771  14.6440000  2
   2381   2382   2391   2390     1  180.0000771  22.8028000  2
   2379   2378   2376   2394     1  0.0000000  0.0000000  2
   2379   2378   2391   2382     1  180.0000771  6.9036000  2
   2379   2378   2391   2390     1  180.0000771  6.9036000  2
   2379   2381   2382   2383     1  180.0000771  10.6692000  2
   2379   2381   2382   2391     1  180.0000771  10.6692000  2
   2378   2376   2394   2392     1  0.0000000  0.6508444  3
   2378   2376   2394   2396     1  0.0000000  0.6508444  3
   2378   2379   2381   2382     1  180.0000771  41.8400000  2
   2378   2391   2382   2381     1  180.0000771  22.8028000  2
   2378   2391   2382   2383     1  180.0000771  22.8028000  2
   2378   2391   2390   2388     1  180.0000771  17.3636000  2
   2376   2375   2373   2392     1  180.0000771  0.4184000  2
   2376   2375   2373   2392     1  0.0000000  1.6024720  3
   2376   2378   2379   2381     1  180.0000771  7.1128000  2
   2376   2378   2391   2382     1  180.0000771  6.9036000  2
   2376   2378   2391   2390     1  180.0000771  6.9036000  2
   2376   2394   2392   2398     1  0.0000000  0.6508444  3
   2375   2373   2392   2394     1  0.0000000  0.6508444  3
   2375   2373   2392   2398     1  0.0000000  4.9162000  2
   2375   2373   2392   2398     1  0.0000000  0.6024960  3
   2375   2376   2378   2379     1  98.2900423  3.1435856  1
   2375   2376   2378   2379     1  328.5601409  4.5857268  2
   2375   2376   2378   2379     1  50.5200217  -1.7297325  3
   2375   2376   2378   2379     1  40.9900176  0.2709140  4
   2375   2376   2378   2391     1  0.0000000  0.0000000  2
   2375   2376   2394   2392     1  0.0000000  0.6508444  3
   2375   2376   2394   2396     1  0.0000000  4.9162000  2
   2375   2376   2394   2396     1  0.0000000  0.6024960  3
   2373   2375   2376   2378     1  0.0000000  2.7196000  2
   2373   2375   2376   2378     1  0.0000000  1.6024720  3
   2373   2375   2376   2394     1  180.0000771  0.4184000  2
   2373   2375   2376   2394     1  0.0000000  1.6024720  3
   2373   2392   2394   2376     1  180.0000771  0.8368000  1
   2373   2392   2394   2376     1  180.0000771  1.0460000  2
   2373   2392   2394   2376     1  0.0000000  0.7531200  3
   2373   2392   2394   2396     1  0.0000000  0.6508444  3
   2373   2392   2398   2399     1  0.0000000  1.6038667  3
   2370   2373   2375   2376     1  180.0000771  0.4184000  2
   2370   2373   2375   2376     1  0.0000000  1.6024720  3
   2370   2373   2392   2394     1  180.0000771  0.8368000  1
   2370   2373   2392   2394     1  180.0000771  1.0460000  2
   2370   2373   2392   2394     1  0.0000000  0.7531200  3
   2370   2373   2392   2398     1  0.0000000  0.6508444  3
   2369   2370   2373   2375     1  0.0000000  0.6508444  3
   2369   2370   2373   2392     1  299.6901286  -1.5060182  1
   2369   2370   2373   2392     1  274.1001175  5.1381528  2
   2369   2370   2373   2392     1  342.2101465  3.2676873  3
   2368   2366   2369   2370     1  0.0000000  1.0460000  3
   2367   2366   2369   2370     1  0.0000000  1.0460000  3
   2366   2369   2370   2373     1  0.0000000  1.6038667  3
   2428   2429   2432   2433     1  31.7950936  0.7747973  1
   2428   2429   2432   2433     1  351.9597510  5.2573257  2
   2428   2429   2432   2433     1  357.2476330  1.4847259  3
   2426   2424   2422   2428     1  0.0000000  4.9162000  2
   2426   2424   2422   2428     1  0.0000000  0.6024960  3
   2424   2422   2428   2429     1  0.0000000  1.6038667  3
   2422   2428   2429   2430     1  0.0000000  1.0460000  3
   2422   2428   2429   2431     1  0.0000000  1.0460000  3
   2422   2428   2429   2432     1  333.9801429  -1.1598843  1
   2422   2428   2429   2432     1  2.9800013  4.4603365  2
   2422   2428   2429   2432     1  29.4700126  0.7878430  3
   2420   2411   2409   2424     1  0.0000000  0.0000000  2
   2417   2416   2418   2420     1  180.0000771  5.6484000  2
   2416   2418   2420   2421     1  180.0000771  5.6484000  2
   2414   2412   2411   2420     1  180.0000771  7.7404000  2
   2414   2416   2418   2420     1  180.0000771  5.6484000  2
   2412   2411   2409   2424     1  0.0000000  0.0000000  2
   2412   2411   2420   2418     1  180.0000771  6.0668000  2
   2412   2411   2420   2421     1  180.0000771  6.0668000  2
   2412   2414   2416   2417     1  180.0000771  9.1002000  2
   2412   2414   2416   2417     1  0.0000000  1.2552000  3
   2412   2414   2416   2418     1  180.0000771  9.1002000  2
   2411   2409   2424   2422     1  0.0000000  0.6508444  3
   2411   2409   2424   2426     1  0.0000000  0.6508444  3
   2411   2412   2414   2416     1  180.0000771  27.8236000  2
   2411   2420   2418   2416     1  180.0000771  5.6484000  2
   2409   2408   2406   2422     1  180.0000771  0.4184000  2
   2409   2408   2406   2422     1  0.0000000  1.6024720  3
   2409   2411   2412   2414     1  180.0000771  7.7404000  2
   2409   2411   2420   2418     1  180.0000771  6.0668000  2
   2409   2411   2420   2421     1  180.0000771  6.0668000  2
   2409   2424   2422   2428     1  0.0000000  0.6508444  3
   2408   2406   2422   2424     1  0.0000000  0.6508444  3
   2408   2406   2422   2428     1  0.0000000  4.9162000  2
   2408   2406   2422   2428     1  0.0000000  0.6024960  3
   2408   2409   2411   2412     1  147.4600633  2.5402277  1
   2408   2409   2411   2412     1  346.4201487  5.4288069  2
   2408   2409   2411   2412     1  38.1300163  -2.0913808  3
   2408   2409   2411   2412     1  348.0001491  -0.6909207  4
   2408   2409   2411   2420     1  0.0000000  0.0000000  2
   2408   2409   2424   2422     1  0.0000000  0.6508444  3
   2408   2409   2424   2426     1  0.0000000  4.9162000  2
   2408   2409   2424   2426     1  0.0000000  0.6024960  3
   2406   2408   2409   2411     1  0.0000000  2.7196000  2
   2406   2408   2409   2411     1  0.0000000  1.6024720  3
   2406   2408   2409   2424     1  180.0000771  0.4184000  2
   2406   2408   2409   2424     1  0.0000000  1.6024720  3
   2406   2422   2424   2409     1  180.0000771  0.8368000  1
   2406   2422   2424   2409     1  180.0000771  1.0460000  2
   2406   2422   2424   2409     1  0.0000000  0.7531200  3
   2406   2422   2424   2426     1  0.0000000  0.6508444  3
   2406   2422   2428   2429     1  0.0000000  1.6038667  3
   2403   2406   2408   2409     1  180.0000771  0.4184000  2
   2403   2406   2408   2409     1  0.0000000  1.6024720  3
   2403   2406   2422   2424     1  180.0000771  0.8368000  1
   2403   2406   2422   2424     1  180.0000771  1.0460000  2
   2403   2406   2422   2424     1  0.0000000  0.7531200  3
   2403   2406   2422   2428     1  0.0000000  0.6508444  3
   2402   2403   2406   2408     1  0.0000000  0.6508444  3
   2402   2403   2406   2422     1  299.6901286  -1.5060182  1
   2402   2403   2406   2422     1  274.1001175  5.1381528  2
   2402   2403   2406   2422     1  342.2101465  3.2676873  3
   2401   2399   2402   2403     1  0.0000000  1.0460000  3
   2400   2399   2402   2403     1  0.0000000  1.0460000  3
   2399   2402   2403   2406     1  0.0000000  1.6038667  3
   2461   2462   2465   2466     1  31.7950936  0.7747973  1
   2461   2462   2465   2466     1  351.9597510  5.2573257  2
   2461   2462   2465   2466     1  357.2476330  1.4847259  3
   2459   2457   2455   2461     1  0.0000000  4.9162000  2
   2459   2457   2455   2461     1  0.0000000  0.6024960  3
   2457   2455   2461   2462     1  0.0000000  1.6038667  3
   2455   2461   2462   2463     1  0.0000000  1.0460000  3
   2455   2461   2462   2464     1  0.0000000  1.0460000  3
   2455   2461   2462   2465     1  333.9801429  -1.1598843  1
   2455   2461   2462   2465     1  2.9800013  4.4603365  2
   2455   2461   2462   2465     1  29.4700126  0.7878430  3
   2454   2441   2439   2457     1  0.0000000  0.0000000  2
   2450   2446   2445   2454     1  180.0000771  14.6440000  2
   2450   2451   2453   2454     1  180.0000771  28.4512000  2
   2447   2446   2445   2454     1  180.0000771  14.6440000  2
   2447   2446   2450   2451     1  180.0000771  20.0832000  2
   2446   2445   2454   2453     1  180.0000771  22.8028000  2
   2446   2450   2451   2453     1  180.0000771  28.4512000  2
   2445   2446   2450   2451     1  180.0000771  20.0832000  2
   2445   2454   2453   2451     1  180.0000771  17.3636000  2
   2444   2442   2441   2454     1  180.0000771  7.1128000  2
   2444   2445   2446   2447     1  180.0000771  14.6440000  2
   2444   2445   2446   2450     1  180.0000771  14.6440000  2
   2444   2445   2454   2453     1  180.0000771  22.8028000  2
   2442   2441   2439   2457     1  0.0000000  0.0000000  2
   2442   2441   2454   2445     1  180.0000771  6.9036000  2
   2442   2441   2454   2453     1  180.0000771  6.9036000  2
   2442   2444   2445   2446     1  180.0000771  10.6692000  2
   2442   2444   2445   2454     1  180.0000771  10.6692000  2
   2441   2439   2457   2455     1  0.0000000  0.6508444  3
   2441   2439   2457   2459     1  0.0000000  0.6508444  3
   2441   2442   2444   2445     1  180.0000771  41.8400000  2
   2441   2454   2445   2444     1  180.0000771  22.8028000  2
   2441   2454   2445   2446     1  180.0000771  22.8028000  2
   2441   2454   2453   2451     1  180.0000771  17.3636000  2
   2439   2438   2436   2455     1  180.0000771  0.4184000  2
   2439   2438   2436   2455     1  0.0000000  1.6024720  3
   2439   2441   2442   2444     1  180.0000771  7.1128000  2
   2439   2441   2454   2445     1  180.0000771  6.9036000  2
   2439   2441   2454   2453     1  180.0000771  6.9036000  2
   2439   2457   2455   2461     1  0.0000000  0.6508444  3
   2438   2436   2455   2457     1  0.0000000  0.6508444  3
   2438   2436   2455   2461     1  0.0000000  4.9162000  2
   2438   2436   2455   2461     1  0.0000000  0.6024960  3
   2438   2439   2441   2442     1  98.2900423  3.1435856  1
   2438   2439   2441   2442     1  328.5601409  4.5857268  2
   2438   2439   2441   2442     1  50.5200217  -1.7297325  3
   2438   2439   2441   2442     1  40.9900176  0.2709140  4
   2438   2439   2441   2454     1  0.0000000  0.0000000  2
   2438   2439   2457   2455     1  0.0000000  0.6508444  3
   2438   2439   2457   2459     1  0.0000000  4.9162000  2
   2438   2439   2457   2459     1  0.0000000  0.6024960  3
   2436   2438   2439   2441     1  0.0000000  2.7196000  2
   2436   2438   2439   2441     1  0.0000000  1.6024720  3
   2436   2438   2439   2457     1  180.0000771  0.4184000  2
   2436   2438   2439   2457     1  0.0000000  1.6024720  3
   2436   2455   2457   2439     1  180.0000771  0.8368000  1
   2436   2455   2457   2439     1  180.0000771  1.0460000  2
   2436   2455   2457   2439     1  0.0000000  0.7531200  3
   2436   2455   2457   2459     1  0.0000000  0.6508444  3
   2436   2455   2461   2462     1  0.0000000  1.6038667  3
   2433   2436   2438   2439     1  180.0000771  0.4184000  2
   2433   2436   2438   2439     1  0.0000000  1.6024720  3
   2433   2436   2455   2457     1  180.0000771  0.8368000  1
   2433   2436   2455   2457     1  180.0000771  1.0460000  2
   2433   2436   2455   2457     1  0.0000000  0.7531200  3
   2433   2436   2455   2461     1  0.0000000  0.6508444  3
   2432   2433   2436   2438     1  0.0000000  0.6508444  3
   2432   2433   2436   2455     1  299.6901286  -1.5060182  1
   2432   2433   2436   2455     1  274.1001175  5.1381528  2
   2432   2433   2436   2455     1  342.2101465  3.2676873  3
   2431   2429   2432   2433     1  0.0000000  1.0460000  3
   2430   2429   2432   2433     1  0.0000000  1.0460000  3
   2429   2432   2433   2436     1  0.0000000  1.6038667  3
   2492   2493   2496   2497     1  31.7950936  0.7747973  1
   2492   2493   2496   2497     1  351.9597510  5.2573257  2
   2492   2493   2496   2497     1  357.2476330  1.4847259  3
   2490   2488   2486   2492     1  0.0000000  4.9162000  2
   2490   2488   2486   2492     1  0.0000000  0.6024960  3
   2488   2486   2492   2493     1  0.0000000  1.6038667  3
   2486   2492   2493   2494     1  0.0000000  1.0460000  3
   2486   2492   2493   2495     1  0.0000000  1.0460000  3
   2486   2492   2493   2496     1  333.9801429  -1.1598843  1
   2486   2492   2493   2496     1  2.9800013  4.4603365  2
   2486   2492   2493   2496     1  29.4700126  0.7878430  3
   2484   2474   2472   2488     1  0.0000000  0.0000000  2
   2480   2479   2483   2484     1  180.0000771  20.0832000  2
   2479   2483   2484   2485     1  180.0000771  16.7360000  2
   2477   2475   2474   2484     1  180.0000771  7.7404000  2
   2477   2479   2483   2484     1  180.0000771  20.0832000  2
   2475   2474   2472   2488     1  0.0000000  0.0000000  2
   2475   2474   2484   2483     1  180.0000771  6.0668000  2
   2475   2474   2484   2485     1  180.0000771  6.0668000  2
   2475   2477   2479   2480     1  180.0000771  10.6692000  2
   2475   2477   2479   2483     1  180.0000771  10.6692000  2
   2474   2472   2488   2486     1  0.0000000  0.6508444  3
   2474   2472   2488   2490     1  0.0000000  0.6508444  3
   2474   2475   2477   2479     1  180.0000771  27.8236000  2
   2474   2484   2483   2479     1  180.0000771  16.7360000  2
   2472   2471   2469   2486     1  180.0000771  0.4184000  2
   2472   2471   2469   2486     1  0.0000000  1.6024720  3
   2472   2474   2475   2477     1  180.0000771  7.7404000  2
   2472   2474   2484   2483     1  180.0000771  6.0668000  2
   2472   2474   2484   2485     1  180.0000771  6.0668000  2
   2472   2488   2486   2492     1  0.0000000  0.6508444  3
   2471   2469   2486   2488     1  0.0000000  0.6508444  3
   2471   2469   2486   2492     1  0.0000000  4.9162000  2
   2471   2469   2486   2492     1  0.0000000  0.6024960  3
   2471   2472   2474   2475     1  111.1800474  2.8397101  1
   2471   2472   2474   2475     1  340.2301459  5.0000223  2
   2471   2472   2474   2475     1  28.2000121  -3.7349982  3
   2471   2472   2474   2475     1  355.0801519  -1.2977304  4
   2471   2472   2474   2484     1  0.0000000  0.0000000  2
   2471   2472   2488   2486     1  0.0000000  0.6508444  3
   2471   2472   2488   2490     1  0.0000000  4.9162000  2
   2471   2472   2488   2490     1  0.0000000  0.6024960  3
   2469   2471   2472   2474     1  0.0000000  2.7196000  2
   2469   2471   2472   2474     1  0.0000000  1.6024720  3
   2469   2471   2472   2488     1  180.0000771  0.4184000  2
   2469   2471   2472   2488     1  0.0000000  1.6024720  3
   2469   2486   2488   2472     1  180.0000771  0.8368000  1
   2469   2486   2488   2472     1  180.0000771  1.0460000  2
   2469   2486   2488   2472     1  0.0000000  0.7531200  3
   2469   2486   2488   2490     1  0.0000000  0.6508444  3
   2469   2486   2492   2493     1  0.0000000  1.6038667  3
   2466   2469   2471   2472     1  180.0000771  0.4184000  2
   2466   2469   2471   2472     1  0.0000000  1.6024720  3
   2466   2469   2486   2488     1  180.0000771  0.8368000  1
   2466   2469   2486   2488     1  180.0000771  1.0460000  2
   2466   2469   2486   2488     1  0.0000000  0.7531200  3
   2466   2469   2486   2492     1  0.0000000  0.6508444  3
   2465   2466   2469   2471     1  0.0000000  0.6508444  3
   2465   2466   2469   2486     1  299.6901286  -1.5060182  1
   2465   2466   2469   2486     1  274.1001175  5.1381528  2
   2465   2466   2469   2486     1  342.2101465  3.2676873  3
   2464   2462   2465   2466     1  0.0000000  1.0460000  3
   2463   2462   2465   2466     1  0.0000000  1.0460000  3
   2462   2465   2466   2469     1  0.0000000  1.6038667  3
   2525   2526   2529   2530     1  31.7950936  0.7747973  1
   2525   2526   2529   2530     1  351.9597510  5.2573257  2
   2525   2526   2529   2530     1  357.2476330  1.4847259  3
   2523   2521   2519   2525     1  0.0000000  4.9162000  2
   2523   2521   2519   2525     1  0.0000000  0.6024960  3
   2521   2519   2525   2526     1  0.0000000  1.6038667  3
   2519   2525   2526   2527     1  0.0000000  1.0460000  3
   2519   2525   2526   2528     1  0.0000000  1.0460000  3
   2519   2525   2526   2529     1  333.9801429  -1.1598843  1
   2519   2525   2526   2529     1  2.9800013  4.4603365  2
   2519   2525   2526   2529     1  29.4700126  0.7878430  3
   2518   2505   2503   2521     1  0.0000000  0.0000000  2
   2514   2510   2509   2518     1  180.0000771  14.6440000  2
   2514   2515   2517   2518     1  180.0000771  28.4512000  2
   2511   2510   2509   2518     1  180.0000771  14.6440000  2
   2511   2510   2514   2515     1  180.0000771  20.0832000  2
   2510   2509   2518   2517     1  180.0000771  22.8028000  2
   2510   2514   2515   2517     1  180.0000771  28.4512000  2
   2509   2510   2514   2515     1  180.0000771  20.0832000  2
   2509   2518   2517   2515     1  180.0000771  17.3636000  2
   2508   2506   2505   2518     1  180.0000771  7.1128000  2
   2508   2509   2510   2511     1  180.0000771  14.6440000  2
   2508   2509   2510   2514     1  180.0000771  14.6440000  2
   2508   2509   2518   2517     1  180.0000771  22.8028000  2
   2506   2505   2503   2521     1  0.0000000  0.0000000  2
   2506   2505   2518   2509     1  180.0000771  6.9036000  2
   2506   2505   2518   2517     1  180.0000771  6.9036000  2
   2506   2508   2509   2510     1  180.0000771  10.6692000  2
   2506   2508   2509   2518     1  180.0000771  10.6692000  2
   2505   2503   2521   2519     1  0.0000000  0.6508444  3
   2505   2503   2521   2523     1  0.0000000  0.6508444  3
   2505   2506   2508   2509     1  180.0000771  41.8400000  2
   2505   2518   2509   2508     1  180.0000771  22.8028000  2
   2505   2518   2509   2510     1  180.0000771  22.8028000  2
   2505   2518   2517   2515     1  180.0000771  17.3636000  2
   2503   2502   2500   2519     1  180.0000771  0.4184000  2
   2503   2502   2500   2519     1  0.0000000  1.6024720  3
   2503   2505   2506   2508     1  180.0000771  7.1128000  2
   2503   2505   2518   2509     1  180.0000771  6.9036000  2
   2503   2505   2518   2517     1  180.0000771  6.9036000  2
   2503   2521   2519   2525     1  0.0000000  0.6508444  3
   2502   2500   2519   2521     1  0.0000000  0.6508444  3
   2502   2500   2519   2525     1  0.0000000  4.9162000  2
   2502   2500   2519   2525     1  0.0000000  0.6024960  3
   2502   2503   2505   2506     1  98.2900423  3.1435856  1
   2502   2503   2505   2506     1  328.5601409  4.5857268  2
   2502   2503   2505   2506     1  50.5200217  -1.7297325  3
   2502   2503   2505   2506     1  40.9900176  0.2709140  4
   2502   2503   2505   2518     1  0.0000000  0.0000000  2
   2502   2503   2521   2519     1  0.0000000  0.6508444  3
   2502   2503   2521   2523     1  0.0000000  4.9162000  2
   2502   2503   2521   2523     1  0.0000000  0.6024960  3
   2500   2502   2503   2505     1  0.0000000  2.7196000  2
   2500   2502   2503   2505     1  0.0000000  1.6024720  3
   2500   2502   2503   2521     1  180.0000771  0.4184000  2
   2500   2502   2503   2521     1  0.0000000  1.6024720  3
   2500   2519   2521   2503     1  180.0000771  0.8368000  1
   2500   2519   2521   2503     1  180.0000771  1.0460000  2
   2500   2519   2521   2503     1  0.0000000  0.7531200  3
   2500   2519   2521   2523     1  0.0000000  0.6508444  3
   2500   2519   2525   2526     1  0.0000000  1.6038667  3
   2497   2500   2502   2503     1  180.0000771  0.4184000  2
   2497   2500   2502   2503     1  0.0000000  1.6024720  3
   2497   2500   2519   2521     1  180.0000771  0.8368000  1
   2497   2500   2519   2521     1  180.0000771  1.0460000  2
   2497   2500   2519   2521     1  0.0000000  0.7531200  3
   2497   2500   2519   2525     1  0.0000000  0.6508444  3
   2496   2497   2500   2502     1  0.0000000  0.6508444  3
   2496   2497   2500   2519     1  299.6901286  -1.5060182  1
   2496   2497   2500   2519     1  274.1001175  5.1381528  2
   2496   2497   2500   2519     1  342.2101465  3.2676873  3
   2495   2493   2496   2497     1  0.0000000  1.0460000  3
   2494   2493   2496   2497     1  0.0000000  1.0460000  3
   2493   2496   2497   2500     1  0.0000000  1.6038667  3
   2559   2560   2563   2564     1  31.7950936  0.7747973  1
   2559   2560   2563   2564     1  351.9597510  5.2573257  2
   2559   2560   2563   2564     1  357.2476330  1.4847259  3
   2557   2555   2553   2559     1  0.0000000  4.9162000  2
   2557   2555   2553   2559     1  0.0000000  0.6024960  3
   2555   2553   2559   2560     1  0.0000000  1.6038667  3
   2553   2559   2560   2561     1  0.0000000  1.0460000  3
   2553   2559   2560   2562     1  0.0000000  1.0460000  3
   2553   2559   2560   2563     1  333.9801429  -1.1598843  1
   2553   2559   2560   2563     1  2.9800013  4.4603365  2
   2553   2559   2560   2563     1  29.4700126  0.7878430  3
   2552   2538   2536   2555     1  0.0000000  0.0000000  2
   2548   2547   2551   2552     1  180.0000771  20.0832000  2
   2545   2543   2542   2552     1  180.0000771  12.5520000  2
   2545   2547   2551   2552     1  180.0000771  20.0832000  2
   2544   2543   2542   2552     1  180.0000771  12.5520000  2
   2544   2543   2545   2547     1  180.0000771  5.6484000  2
   2543   2542   2552   2551     1  180.0000771  22.8028000  2
   2543   2545   2547   2548     1  180.0000771  6.2760000  2
   2543   2545   2547   2551     1  180.0000771  6.2760000  2
   2542   2543   2545   2547     1  180.0000771  5.6484000  2
   2542   2552   2551   2547     1  180.0000771  17.3636000  2
   2541   2539   2538   2552     1  180.0000771  7.1128000  2
   2541   2542   2543   2544     1  180.0000771  12.5520000  2
   2541   2542   2543   2545     1  180.0000771  12.5520000  2
   2541   2542   2552   2551     1  180.0000771  22.8028000  2
   2539   2538   2536   2555     1  0.0000000  0.0000000  2
   2539   2538   2552   2542     1  180.0000771  6.9036000  2
   2539   2538   2552   2551     1  180.0000771  6.9036000  2
   2539   2541   2542   2543     1  180.0000771  10.6692000  2
   2539   2541   2542   2552     1  180.0000771  10.6692000  2
   2538   2536   2555   2553     1  0.0000000  0.6508444  3
   2538   2536   2555   2557     1  0.0000000  0.6508444  3
   2538   2539   2541   2542     1  180.0000771  41.8400000  2
   2538   2552   2542   2541     1  180.0000771  22.8028000  2
   2538   2552   2542   2543     1  180.0000771  22.8028000  2
   2538   2552   2551   2547     1  180.0000771  17.3636000  2
   2536   2535   2533   2553     1  180.0000771  0.4184000  2
   2536   2535   2533   2553     1  0.0000000  1.6024720  3
   2536   2538   2539   2541     1  180.0000771  7.1128000  2
   2536   2538   2552   2542     1  180.0000771  6.9036000  2
   2536   2538   2552   2551     1  180.0000771  6.9036000  2
   2536   2555   2553   2559     1  0.0000000  0.6508444  3
   2535   2533   2553   2555     1  0.0000000  0.6508444  3
   2535   2533   2553   2559     1  0.0000000  4.9162000  2
   2535   2533   2553   2559     1  0.0000000  0.6024960  3
   2535   2536   2538   2539     1  287.1401229  -3.8169126  1
   2535   2536   2538   2539     1  331.9701422  5.7662424  2
   2535   2536   2538   2539     1  27.7600119  -1.7805138  3
   2535   2536   2538   2539     1  328.1301407  0.2514082  4
   2535   2536   2538   2552     1  0.0000000  0.0000000  2
   2535   2536   2555   2553     1  0.0000000  0.6508444  3
   2535   2536   2555   2557     1  0.0000000  4.9162000  2
   2535   2536   2555   2557     1  0.0000000  0.6024960  3
   2533   2535   2536   2538     1  0.0000000  2.7196000  2
   2533   2535   2536   2538     1  0.0000000  1.6024720  3
   2533   2535   2536   2555     1  180.0000771  0.4184000  2
   2533   2535   2536   2555     1  0.0000000  1.6024720  3
   2533   2553   2555   2536     1  180.0000771  0.8368000  1
   2533   2553   2555   2536     1  180.0000771  1.0460000  2
   2533   2553   2555   2536     1  0.0000000  0.7531200  3
   2533   2553   2555   2557     1  0.0000000  0.6508444  3
   2533   2553   2559   2560     1  0.0000000  1.6038667  3
   2530   2533   2535   2536     1  180.0000771  0.4184000  2
   2530   2533   2535   2536     1  0.0000000  1.6024720  3
   2530   2533   2553   2555     1  180.0000771  0.8368000  1
   2530   2533   2553   2555     1  180.0000771  1.0460000  2
   2530   2533   2553   2555     1  0.0000000  0.7531200  3
   2530   2533   2553   2559     1  0.0000000  0.6508444  3
   2529   2530   2533   2535     1  0.0000000  0.6508444  3
   2529   2530   2533   2553     1  299.6901286  -1.5060182  1
   2529   2530   2533   2553     1  274.1001175  5.1381528  2
   2529   2530   2533   2553     1  342.2101465  3.2676873  3
   2528   2526   2529   2530     1  0.0000000  1.0460000  3
   2527   2526   2529   2530     1  0.0000000  1.0460000  3
   2526   2529   2530   2533     1  0.0000000  1.6038667  3
   2593   2594   2597   2598     1  31.7950936  0.7747973  1
   2593   2594   2597   2598     1  351.9597510  5.2573257  2
   2593   2594   2597   2598     1  357.2476330  1.4847259  3
   2591   2589   2587   2593     1  0.0000000  4.9162000  2
   2591   2589   2587   2593     1  0.0000000  0.6024960  3
   2589   2587   2593   2594     1  0.0000000  1.6038667  3
   2587   2593   2594   2595     1  0.0000000  1.0460000  3
   2587   2593   2594   2596     1  0.0000000  1.0460000  3
   2587   2593   2594   2597     1  333.9801429  -1.1598843  1
   2587   2593   2594   2597     1  2.9800013  4.4603365  2
   2587   2593   2594   2597     1  29.4700126  0.7878430  3
   2586   2572   2570   2589     1  0.0000000  0.0000000  2
   2582   2581   2585   2586     1  180.0000771  20.0832000  2
   2579   2577   2576   2586     1  180.0000771  12.5520000  2
   2579   2581   2585   2586     1  180.0000771  20.0832000  2
   2578   2577   2576   2586     1  180.0000771  12.5520000  2
   2578   2577   2579   2581     1  180.0000771  5.6484000  2
   2577   2576   2586   2585     1  180.0000771  22.8028000  2
   2577   2579   2581   2582     1  180.0000771  6.2760000  2
   2577   2579   2581   2585     1  180.0000771  6.2760000  2
   2576   2577   2579   2581     1  180.0000771  5.6484000  2
   2576   2586   2585   2581     1  180.0000771  17.3636000  2
   2575   2573   2572   2586     1  180.0000771  7.1128000  2
   2575   2576   2577   2578     1  180.0000771  12.5520000  2
   2575   2576   2577   2579     1  180.0000771  12.5520000  2
   2575   2576   2586   2585     1  180.0000771  22.8028000  2
   2573   2572   2570   2589     1  0.0000000  0.0000000  2
   2573   2572   2586   2576     1  180.0000771  6.9036000  2
   2573   2572   2586   2585     1  180.0000771  6.9036000  2
   2573   2575   2576   2577     1  180.0000771  10.6692000  2
   2573   2575   2576   2586     1  180.0000771  10.6692000  2
   2572   2570   2589   2587     1  0.0000000  0.6508444  3
   2572   2570   2589   2591     1  0.0000000  0.6508444  3
   2572   2573   2575   2576     1  180.0000771  41.8400000  2
   2572   2586   2576   2575     1  180.0000771  22.8028000  2
   2572   2586   2576   2577     1  180.0000771  22.8028000  2
   2572   2586   2585   2581     1  180.0000771  17.3636000  2
   2570   2569   2567   2587     1  180.0000771  0.4184000  2
   2570   2569   2567   2587     1  0.0000000  1.6024720  3
   2570   2572   2573   2575     1  180.0000771  7.1128000  2
   2570   2572   2586   2576     1  180.0000771  6.9036000  2
   2570   2572   2586   2585     1  180.0000771  6.9036000  2
   2570   2589   2587   2593     1  0.0000000  0.6508444  3
   2569   2567   2587   2589     1  0.0000000  0.6508444  3
   2569   2567   2587   2593     1  0.0000000  4.9162000  2
   2569   2567   2587   2593     1  0.0000000  0.6024960  3
   2569   2570   2572   2573     1  287.1401229  -3.8169126  1
   2569   2570   2572   2573     1  331.9701422  5.7662424  2
   2569   2570   2572   2573     1  27.7600119  -1.7805138  3
   2569   2570   2572   2573     1  328.1301407  0.2514082  4
   2569   2570   2572   2586     1  0.0000000  0.0000000  2
   2569   2570   2589   2587     1  0.0000000  0.6508444  3
   2569   2570   2589   2591     1  0.0000000  4.9162000  2
   2569   2570   2589   2591     1  0.0000000  0.6024960  3
   2567   2569   2570   2572     1  0.0000000  2.7196000  2
   2567   2569   2570   2572     1  0.0000000  1.6024720  3
   2567   2569   2570   2589     1  180.0000771  0.4184000  2
   2567   2569   2570   2589     1  0.0000000  1.6024720  3
   2567   2587   2589   2570     1  180.0000771  0.8368000  1
   2567   2587   2589   2570     1  180.0000771  1.0460000  2
   2567   2587   2589   2570     1  0.0000000  0.7531200  3
   2567   2587   2589   2591     1  0.0000000  0.6508444  3
   2567   2587   2593   2594     1  0.0000000  1.6038667  3
   2564   2567   2569   2570     1  180.0000771  0.4184000  2
   2564   2567   2569   2570     1  0.0000000  1.6024720  3
   2564   2567   2587   2589     1  180.0000771  0.8368000  1
   2564   2567   2587   2589     1  180.0000771  1.0460000  2
   2564   2567   2587   2589     1  0.0000000  0.7531200  3
   2564   2567   2587   2593     1  0.0000000  0.6508444  3
   2563   2564   2567   2569     1  0.0000000  0.6508444  3
   2563   2564   2567   2587     1  299.6901286  -1.5060182  1
   2563   2564   2567   2587     1  274.1001175  5.1381528  2
   2563   2564   2567   2587     1  342.2101465  3.2676873  3
   2562   2560   2563   2564     1  0.0000000  1.0460000  3
   2561   2560   2563   2564     1  0.0000000  1.0460000  3
   2560   2563   2564   2567     1  0.0000000  1.6038667  3
   2627   2628   2631   2632     1  31.7950936  0.7747973  1
   2627   2628   2631   2632     1  351.9597510  5.2573257  2
   2627   2628   2631   2632     1  357.2476330  1.4847259  3
   2625   2623   2621   2627     1  0.0000000  4.9162000  2
   2625   2623   2621   2627     1  0.0000000  0.6024960  3
   2623   2621   2627   2628     1  0.0000000  1.6038667  3
   2621   2627   2628   2629     1  0.0000000  1.0460000  3
   2621   2627   2628   2630     1  0.0000000  1.0460000  3
   2621   2627   2628   2631     1  333.9801429  -1.1598843  1
   2621   2627   2628   2631     1  2.9800013  4.4603365  2
   2621   2627   2628   2631     1  29.4700126  0.7878430  3
   2620   2606   2604   2623     1  0.0000000  0.0000000  2
   2616   2615   2619   2620     1  180.0000771  20.0832000  2
   2613   2611   2610   2620     1  180.0000771  12.5520000  2
   2613   2615   2619   2620     1  180.0000771  20.0832000  2
   2612   2611   2610   2620     1  180.0000771  12.5520000  2
   2612   2611   2613   2615     1  180.0000771  5.6484000  2
   2611   2610   2620   2619     1  180.0000771  22.8028000  2
   2611   2613   2615   2616     1  180.0000771  6.2760000  2
   2611   2613   2615   2619     1  180.0000771  6.2760000  2
   2610   2611   2613   2615     1  180.0000771  5.6484000  2
   2610   2620   2619   2615     1  180.0000771  17.3636000  2
   2609   2607   2606   2620     1  180.0000771  7.1128000  2
   2609   2610   2611   2612     1  180.0000771  12.5520000  2
   2609   2610   2611   2613     1  180.0000771  12.5520000  2
   2609   2610   2620   2619     1  180.0000771  22.8028000  2
   2607   2606   2604   2623     1  0.0000000  0.0000000  2
   2607   2606   2620   2610     1  180.0000771  6.9036000  2
   2607   2606   2620   2619     1  180.0000771  6.9036000  2
   2607   2609   2610   2611     1  180.0000771  10.6692000  2
   2607   2609   2610   2620     1  180.0000771  10.6692000  2
   2606   2604   2623   2621     1  0.0000000  0.6508444  3
   2606   2604   2623   2625     1  0.0000000  0.6508444  3
   2606   2607   2609   2610     1  180.0000771  41.8400000  2
   2606   2620   2610   2609     1  180.0000771  22.8028000  2
   2606   2620   2610   2611     1  180.0000771  22.8028000  2
   2606   2620   2619   2615     1  180.0000771  17.3636000  2
   2604   2603   2601   2621     1  180.0000771  0.4184000  2
   2604   2603   2601   2621     1  0.0000000  1.6024720  3
   2604   2606   2607   2609     1  180.0000771  7.1128000  2
   2604   2606   2620   2610     1  180.0000771  6.9036000  2
   2604   2606   2620   2619     1  180.0000771  6.9036000  2
   2604   2623   2621   2627     1  0.0000000  0.6508444  3
   2603   2601   2621   2623     1  0.0000000  0.6508444  3
   2603   2601   2621   2627     1  0.0000000  4.9162000  2
   2603   2601   2621   2627     1  0.0000000  0.6024960  3
   2603   2604   2606   2607     1  287.1401229  -3.8169126  1
   2603   2604   2606   2607     1  331.9701422  5.7662424  2
   2603   2604   2606   2607     1  27.7600119  -1.7805138  3
   2603   2604   2606   2607     1  328.1301407  0.2514082  4
   2603   2604   2606   2620     1  0.0000000  0.0000000  2
   2603   2604   2623   2621     1  0.0000000  0.6508444  3
   2603   2604   2623   2625     1  0.0000000  4.9162000  2
   2603   2604   2623   2625     1  0.0000000  0.6024960  3
   2601   2603   2604   2606     1  0.0000000  2.7196000  2
   2601   2603   2604   2606     1  0.0000000  1.6024720  3
   2601   2603   2604   2623     1  180.0000771  0.4184000  2
   2601   2603   2604   2623     1  0.0000000  1.6024720  3
   2601   2621   2623   2604     1  180.0000771  0.8368000  1
   2601   2621   2623   2604     1  180.0000771  1.0460000  2
   2601   2621   2623   2604     1  0.0000000  0.7531200  3
   2601   2621   2623   2625     1  0.0000000  0.6508444  3
   2601   2621   2627   2628     1  0.0000000  1.6038667  3
   2598   2601   2603   2604     1  180.0000771  0.4184000  2
   2598   2601   2603   2604     1  0.0000000  1.6024720  3
   2598   2601   2621   2623     1  180.0000771  0.8368000  1
   2598   2601   2621   2623     1  180.0000771  1.0460000  2
   2598   2601   2621   2623     1  0.0000000  0.7531200  3
   2598   2601   2621   2627     1  0.0000000  0.6508444  3
   2597   2598   2601   2603     1  0.0000000  0.6508444  3
   2597   2598   2601   2621     1  299.6901286  -1.5060182  1
   2597   2598   2601   2621     1  274.1001175  5.1381528  2
   2597   2598   2601   2621     1  342.2101465  3.2676873  3
   2596   2594   2597   2598     1  0.0000000  1.0460000  3
   2595   2594   2597   2598     1  0.0000000  1.0460000  3
   2594   2597   2598   2601     1  0.0000000  1.6038667  3
   2658   2659   2662   2663     1  31.7950936  0.7747973  1
   2658   2659   2662   2663     1  351.9597510  5.2573257  2
   2658   2659   2662   2663     1  357.2476330  1.4847259  3
   2656   2654   2652   2658     1  0.0000000  4.9162000  2
   2656   2654   2652   2658     1  0.0000000  0.6024960  3
   2654   2652   2658   2659     1  0.0000000  1.6038667  3
   2652   2658   2659   2660     1  0.0000000  1.0460000  3
   2652   2658   2659   2661     1  0.0000000  1.0460000  3
   2652   2658   2659   2662     1  333.9801429  -1.1598843  1
   2652   2658   2659   2662     1  2.9800013  4.4603365  2
   2652   2658   2659   2662     1  29.4700126  0.7878430  3
   2650   2640   2638   2654     1  0.0000000  0.0000000  2
   2646   2645   2649   2650     1  180.0000771  20.0832000  2
   2645   2649   2650   2651     1  180.0000771  16.7360000  2
   2643   2641   2640   2650     1  180.0000771  7.7404000  2
   2643   2645   2649   2650     1  180.0000771  20.0832000  2
   2641   2640   2638   2654     1  0.0000000  0.0000000  2
   2641   2640   2650   2649     1  180.0000771  6.0668000  2
   2641   2640   2650   2651     1  180.0000771  6.0668000  2
   2641   2643   2645   2646     1  180.0000771  10.6692000  2
   2641   2643   2645   2649     1  180.0000771  10.6692000  2
   2640   2638   2654   2652     1  0.0000000  0.6508444  3
   2640   2638   2654   2656     1  0.0000000  0.6508444  3
   2640   2641   2643   2645     1  180.0000771  27.8236000  2
   2640   2650   2649   2645     1  180.0000771  16.7360000  2
   2638   2637   2635   2652     1  180.0000771  0.4184000  2
   2638   2637   2635   2652     1  0.0000000  1.6024720  3
   2638   2640   2641   2643     1  180.0000771  7.7404000  2
   2638   2640   2650   2649     1  180.0000771  6.0668000  2
   2638   2640   2650   2651     1  180.0000771  6.0668000  2
   2638   2654   2652   2658     1  0.0000000  0.6508444  3
   2637   2635   2652   2654     1  0.0000000  0.6508444  3
   2637   2635   2652   2658     1  0.0000000  4.9162000  2
   2637   2635   2652   2658     1  0.0000000  0.6024960  3
   2637   2638   2640   2641     1  111.1800474  2.8397101  1
   2637   2638   2640   2641     1  340.2301459  5.0000223  2
   2637   2638   2640   2641     1  28.2000121  -3.7349982  3
   2637   2638   2640   2641     1  355.0801519  -1.2977304  4
   2637   2638   2640   2650     1  0.0000000  0.0000000  2
   2637   2638   2654   2652     1  0.0000000  0.6508444  3
   2637   2638   2654   2656     1  0.0000000  4.9162000  2
   2637   2638   2654   2656     1  0.0000000  0.6024960  3
   2635   2637   2638   2640     1  0.0000000  2.7196000  2
   2635   2637   2638   2640     1  0.0000000  1.6024720  3
   2635   2637   2638   2654     1  180.0000771  0.4184000  2
   2635   2637   2638   2654     1  0.0000000  1.6024720  3
   2635   2652   2654   2638     1  180.0000771  0.8368000  1
   2635   2652   2654   2638     1  180.0000771  1.0460000  2
   2635   2652   2654   2638     1  0.0000000  0.7531200  3
   2635   2652   2654   2656     1  0.0000000  0.6508444  3
   2635   2652   2658   2659     1  0.0000000  1.6038667  3
   2632   2635   2637   2638     1  180.0000771  0.4184000  2
   2632   2635   2637   2638     1  0.0000000  1.6024720  3
   2632   2635   2652   2654     1  180.0000771  0.8368000  1
   2632   2635   2652   2654     1  180.0000771  1.0460000  2
   2632   2635   2652   2654     1  0.0000000  0.7531200  3
   2632   2635   2652   2658     1  0.0000000  0.6508444  3
   2631   2632   2635   2637     1  0.0000000  0.6508444  3
   2631   2632   2635   2652     1  299.6901286  -1.5060182  1
   2631   2632   2635   2652     1  274.1001175  5.1381528  2
   2631   2632   2635   2652     1  342.2101465  3.2676873  3
   2630   2628   2631   2632     1  0.0000000  1.0460000  3
   2629   2628   2631   2632     1  0.0000000  1.0460000  3
   2628   2631   2632   2635     1  0.0000000  1.6038667  3
   2688   2689   2692   2693     1  31.7950936  0.7747973  1
   2688   2689   2692   2693     1  351.9597510  5.2573257  2
   2688   2689   2692   2693     1  357.2476330  1.4847259  3
   2686   2684   2682   2688     1  0.0000000  4.9162000  2
   2686   2684   2682   2688     1  0.0000000  0.6024960  3
   2684   2682   2688   2689     1  0.0000000  1.6038667  3
   2682   2688   2689   2690     1  0.0000000  1.0460000  3
   2682   2688   2689   2691     1  0.0000000  1.0460000  3
   2682   2688   2689   2692     1  333.9801429  -1.1598843  1
   2682   2688   2689   2692     1  2.9800013  4.4603365  2
   2682   2688   2689   2692     1  29.4700126  0.7878430  3
   2680   2671   2669   2684     1  0.0000000  0.0000000  2
   2677   2676   2678   2680     1  180.0000771  5.6484000  2
   2676   2678   2680   2681     1  180.0000771  5.6484000  2
   2674   2672   2671   2680     1  180.0000771  7.7404000  2
   2674   2676   2678   2680     1  180.0000771  5.6484000  2
   2672   2671   2669   2684     1  0.0000000  0.0000000  2
   2672   2671   2680   2678     1  180.0000771  6.0668000  2
   2672   2671   2680   2681     1  180.0000771  6.0668000  2
   2672   2674   2676   2677     1  180.0000771  9.1002000  2
   2672   2674   2676   2677     1  0.0000000  1.2552000  3
   2672   2674   2676   2678     1  180.0000771  9.1002000  2
   2671   2669   2684   2682     1  0.0000000  0.6508444  3
   2671   2669   2684   2686     1  0.0000000  0.6508444  3
   2671   2672   2674   2676     1  180.0000771  27.8236000  2
   2671   2680   2678   2676     1  180.0000771  5.6484000  2
   2669   2668   2666   2682     1  180.0000771  0.4184000  2
   2669   2668   2666   2682     1  0.0000000  1.6024720  3
   2669   2671   2672   2674     1  180.0000771  7.7404000  2
   2669   2671   2680   2678     1  180.0000771  6.0668000  2
   2669   2671   2680   2681     1  180.0000771  6.0668000  2
   2669   2684   2682   2688     1  0.0000000  0.6508444  3
   2668   2666   2682   2684     1  0.0000000  0.6508444  3
   2668   2666   2682   2688     1  0.0000000  4.9162000  2
   2668   2666   2682   2688     1  0.0000000  0.6024960  3
   2668   2669   2671   2672     1  147.4600633  2.5402277  1
   2668   2669   2671   2672     1  346.4201487  5.4288069  2
   2668   2669   2671   2672     1  38.1300163  -2.0913808  3
   2668   2669   2671   2672     1  348.0001491  -0.6909207  4
   2668   2669   2671   2680     1  0.0000000  0.0000000  2
   2668   2669   2684   2682     1  0.0000000  0.6508444  3
   2668   2669   2684   2686     1  0.0000000  4.9162000  2
   2668   2669   2684   2686     1  0.0000000  0.6024960  3
   2666   2668   2669   2671     1  0.0000000  2.7196000  2
   2666   2668   2669   2671     1  0.0000000  1.6024720  3
   2666   2668   2669   2684     1  180.0000771  0.4184000  2
   2666   2668   2669   2684     1  0.0000000  1.6024720  3
   2666   2682   2684   2669     1  180.0000771  0.8368000  1
   2666   2682   2684   2669     1  180.0000771  1.0460000  2
   2666   2682   2684   2669     1  0.0000000  0.7531200  3
   2666   2682   2684   2686     1  0.0000000  0.6508444  3
   2666   2682   2688   2689     1  0.0000000  1.6038667  3
   2663   2666   2668   2669     1  180.0000771  0.4184000  2
   2663   2666   2668   2669     1  0.0000000  1.6024720  3
   2663   2666   2682   2684     1  180.0000771  0.8368000  1
   2663   2666   2682   2684     1  180.0000771  1.0460000  2
   2663   2666   2682   2684     1  0.0000000  0.7531200  3
   2663   2666   2682   2688     1  0.0000000  0.6508444  3
   2662   2663   2666   2668     1  0.0000000  0.6508444  3
   2662   2663   2666   2682     1  299.6901286  -1.5060182  1
   2662   2663   2666   2682     1  274.1001175  5.1381528  2
   2662   2663   2666   2682     1  342.2101465  3.2676873  3
   2661   2659   2662   2663     1  0.0000000  1.0460000  3
   2660   2659   2662   2663     1  0.0000000  1.0460000  3
   2659   2662   2663   2666     1  0.0000000  1.6038667  3
   2718   2719   2722   2723     1  31.7950936  0.7747973  1
   2718   2719   2722   2723     1  351.9597510  5.2573257  2
   2718   2719   2722   2723     1  357.2476330  1.4847259  3
   2716   2714   2712   2718     1  0.0000000  4.9162000  2
   2716   2714   2712   2718     1  0.0000000  0.6024960  3
   2714   2712   2718   2719     1  0.0000000  1.6038667  3
   2712   2718   2719   2720     1  0.0000000  1.0460000  3
   2712   2718   2719   2721     1  0.0000000  1.0460000  3
   2712   2718   2719   2722     1  333.9801429  -1.1598843  1
   2712   2718   2719   2722     1  2.9800013  4.4603365  2
   2712   2718   2719   2722     1  29.4700126  0.7878430  3
   2710   2701   2699   2714     1  0.0000000  0.0000000  2
   2707   2706   2708   2710     1  180.0000771  5.6484000  2
   2706   2708   2710   2711     1  180.0000771  5.6484000  2
   2704   2702   2701   2710     1  180.0000771  7.7404000  2
   2704   2706   2708   2710     1  180.0000771  5.6484000  2
   2702   2701   2699   2714     1  0.0000000  0.0000000  2
   2702   2701   2710   2708     1  180.0000771  6.0668000  2
   2702   2701   2710   2711     1  180.0000771  6.0668000  2
   2702   2704   2706   2707     1  180.0000771  9.1002000  2
   2702   2704   2706   2707     1  0.0000000  1.2552000  3
   2702   2704   2706   2708     1  180.0000771  9.1002000  2
   2701   2699   2714   2712     1  0.0000000  0.6508444  3
   2701   2699   2714   2716     1  0.0000000  0.6508444  3
   2701   2702   2704   2706     1  180.0000771  27.8236000  2
   2701   2710   2708   2706     1  180.0000771  5.6484000  2
   2699   2698   2696   2712     1  180.0000771  0.4184000  2
   2699   2698   2696   2712     1  0.0000000  1.6024720  3
   2699   2701   2702   2704     1  180.0000771  7.7404000  2
   2699   2701   2710   2708     1  180.0000771  6.0668000  2
   2699   2701   2710   2711     1  180.0000771  6.0668000  2
   2699   2714   2712   2718     1  0.0000000  0.6508444  3
   2698   2696   2712   2714     1  0.0000000  0.6508444  3
   2698   2696   2712   2718     1  0.0000000  4.9162000  2
   2698   2696   2712   2718     1  0.0000000  0.6024960  3
   2698   2699   2701   2702     1  147.4600633  2.5402277  1
   2698   2699   2701   2702     1  346.4201487  5.4288069  2
   2698   2699   2701   2702     1  38.1300163  -2.0913808  3
   2698   2699   2701   2702     1  348.0001491  -0.6909207  4
   2698   2699   2701   2710     1  0.0000000  0.0000000  2
   2698   2699   2714   2712     1  0.0000000  0.6508444  3
   2698   2699   2714   2716     1  0.0000000  4.9162000  2
   2698   2699   2714   2716     1  0.0000000  0.6024960  3
   2696   2698   2699   2701     1  0.0000000  2.7196000  2
   2696   2698   2699   2701     1  0.0000000  1.6024720  3
   2696   2698   2699   2714     1  180.0000771  0.4184000  2
   2696   2698   2699   2714     1  0.0000000  1.6024720  3
   2696   2712   2714   2699     1  180.0000771  0.8368000  1
   2696   2712   2714   2699     1  180.0000771  1.0460000  2
   2696   2712   2714   2699     1  0.0000000  0.7531200  3
   2696   2712   2714   2716     1  0.0000000  0.6508444  3
   2696   2712   2718   2719     1  0.0000000  1.6038667  3
   2693   2696   2698   2699     1  180.0000771  0.4184000  2
   2693   2696   2698   2699     1  0.0000000  1.6024720  3
   2693   2696   2712   2714     1  180.0000771  0.8368000  1
   2693   2696   2712   2714     1  180.0000771  1.0460000  2
   2693   2696   2712   2714     1  0.0000000  0.7531200  3
   2693   2696   2712   2718     1  0.0000000  0.6508444  3
   2692   2693   2696   2698     1  0.0000000  0.6508444  3
   2692   2693   2696   2712     1  299.6901286  -1.5060182  1
   2692   2693   2696   2712     1  274.1001175  5.1381528  2
   2692   2693   2696   2712     1  342.2101465  3.2676873  3
   2691   2689   2692   2693     1  0.0000000  1.0460000  3
   2690   2689   2692   2693     1  0.0000000  1.0460000  3
   2689   2692   2693   2696     1  0.0000000  1.6038667  3
   2748   2749   2752   2753     1  31.7950936  0.7747973  1
   2748   2749   2752   2753     1  351.9597510  5.2573257  2
   2748   2749   2752   2753     1  357.2476330  1.4847259  3
   2746   2744   2742   2748     1  0.0000000  4.9162000  2
   2746   2744   2742   2748     1  0.0000000  0.6024960  3
   2744   2742   2748   2749     1  0.0000000  1.6038667  3
   2742   2748   2749   2750     1  0.0000000  1.0460000  3
   2742   2748   2749   2751     1  0.0000000  1.0460000  3
   2742   2748   2749   2752     1  333.9801429  -1.1598843  1
   2742   2748   2749   2752     1  2.9800013  4.4603365  2
   2742   2748   2749   2752     1  29.4700126  0.7878430  3
   2740   2731   2729   2744     1  0.0000000  0.0000000  2
   2737   2736   2738   2740     1  180.0000771  5.6484000  2
   2736   2738   2740   2741     1  180.0000771  5.6484000  2
   2734   2732   2731   2740     1  180.0000771  7.7404000  2
   2734   2736   2738   2740     1  180.0000771  5.6484000  2
   2732   2731   2729   2744     1  0.0000000  0.0000000  2
   2732   2731   2740   2738     1  180.0000771  6.0668000  2
   2732   2731   2740   2741     1  180.0000771  6.0668000  2
   2732   2734   2736   2737     1  180.0000771  9.1002000  2
   2732   2734   2736   2737     1  0.0000000  1.2552000  3
   2732   2734   2736   2738     1  180.0000771  9.1002000  2
   2731   2729   2744   2742     1  0.0000000  0.6508444  3
   2731   2729   2744   2746     1  0.0000000  0.6508444  3
   2731   2732   2734   2736     1  180.0000771  27.8236000  2
   2731   2740   2738   2736     1  180.0000771  5.6484000  2
   2729   2728   2726   2742     1  180.0000771  0.4184000  2
   2729   2728   2726   2742     1  0.0000000  1.6024720  3
   2729   2731   2732   2734     1  180.0000771  7.7404000  2
   2729   2731   2740   2738     1  180.0000771  6.0668000  2
   2729   2731   2740   2741     1  180.0000771  6.0668000  2
   2729   2744   2742   2748     1  0.0000000  0.6508444  3
   2728   2726   2742   2744     1  0.0000000  0.6508444  3
   2728   2726   2742   2748     1  0.0000000  4.9162000  2
   2728   2726   2742   2748     1  0.0000000  0.6024960  3
   2728   2729   2731   2732     1  147.4600633  2.5402277  1
   2728   2729   2731   2732     1  346.4201487  5.4288069  2
   2728   2729   2731   2732     1  38.1300163  -2.0913808  3
   2728   2729   2731   2732     1  348.0001491  -0.6909207  4
   2728   2729   2731   2740     1  0.0000000  0.0000000  2
   2728   2729   2744   2742     1  0.0000000  0.6508444  3
   2728   2729   2744   2746     1  0.0000000  4.9162000  2
   2728   2729   2744   2746     1  0.0000000  0.6024960  3
   2726   2728   2729   2731     1  0.0000000  2.7196000  2
   2726   2728   2729   2731     1  0.0000000  1.6024720  3
   2726   2728   2729   2744     1  180.0000771  0.4184000  2
   2726   2728   2729   2744     1  0.0000000  1.6024720  3
   2726   2742   2744   2729     1  180.0000771  0.8368000  1
   2726   2742   2744   2729     1  180.0000771  1.0460000  2
   2726   2742   2744   2729     1  0.0000000  0.7531200  3
   2726   2742   2744   2746     1  0.0000000  0.6508444  3
   2726   2742   2748   2749     1  0.0000000  1.6038667  3
   2723   2726   2728   2729     1  180.0000771  0.4184000  2
   2723   2726   2728   2729     1  0.0000000  1.6024720  3
   2723   2726   2742   2744     1  180.0000771  0.8368000  1
   2723   2726   2742   2744     1  180.0000771  1.0460000  2
   2723   2726   2742   2744     1  0.0000000  0.7531200  3
   2723   2726   2742   2748     1  0.0000000  0.6508444  3
   2722   2723   2726   2728     1  0.0000000  0.6508444  3
   2722   2723   2726   2742     1  299.6901286  -1.5060182  1
   2722   2723   2726   2742     1  274.1001175  5.1381528  2
   2722   2723   2726   2742     1  342.2101465  3.2676873  3
   2721   2719   2722   2723     1  0.0000000  1.0460000  3
   2720   2719   2722   2723     1  0.0000000  1.0460000  3
   2719   2722   2723   2726     1  0.0000000  1.6038667  3
   2776   2774   2772   2778     1  0.0000000  4.9162000  2
   2776   2774   2772   2778     1  0.0000000  0.6024960  3
   2770   2761   2759   2774     1  0.0000000  0.0000000  2
   2767   2766   2768   2770     1  180.0000771  5.6484000  2
   2766   2768   2770   2771     1  180.0000771  5.6484000  2
   2764   2762   2761   2770     1  180.0000771  7.7404000  2
   2764   2766   2768   2770     1  180.0000771  5.6484000  2
   2762   2761   2759   2774     1  0.0000000  0.0000000  2
   2762   2761   2770   2768     1  180.0000771  6.0668000  2
   2762   2761   2770   2771     1  180.0000771  6.0668000  2
   2762   2764   2766   2767     1  180.0000771  9.1002000  2
   2762   2764   2766   2767     1  0.0000000  1.2552000  3
   2762   2764   2766   2768     1  180.0000771  9.1002000  2
   2761   2759   2774   2772     1  0.0000000  0.6508444  3
   2761   2759   2774   2776     1  0.0000000  0.6508444  3
   2761   2762   2764   2766     1  180.0000771  27.8236000  2
   2761   2770   2768   2766     1  180.0000771  5.6484000  2
   2759   2758   2756   2772     1  180.0000771  0.4184000  2
   2759   2758   2756   2772     1  0.0000000  1.6024720  3
   2759   2761   2762   2764     1  180.0000771  7.7404000  2
   2759   2761   2770   2768     1  180.0000771  6.0668000  2
   2759   2761   2770   2771     1  180.0000771  6.0668000  2
   2759   2774   2772   2778     1  0.0000000  0.6508444  3
   2758   2756   2772   2774     1  0.0000000  0.6508444  3
   2758   2756   2772   2778     1  0.0000000  4.9162000  2
   2758   2756   2772   2778     1  0.0000000  0.6024960  3
   2758   2759   2761   2762     1  147.4600633  2.5402277  1
   2758   2759   2761   2762     1  346.4201487  5.4288069  2
   2758   2759   2761   2762     1  38.1300163  -2.0913808  3
   2758   2759   2761   2762     1  348.0001491  -0.6909207  4
   2758   2759   2761   2770     1  0.0000000  0.0000000  2
   2758   2759   2774   2772     1  0.0000000  0.6508444  3
   2758   2759   2774   2776     1  0.0000000  4.9162000  2
   2758   2759   2774   2776     1  0.0000000  0.6024960  3
   2756   2758   2759   2761     1  0.0000000  2.7196000  2
   2756   2758   2759   2761     1  0.0000000  1.6024720  3
   2756   2758   2759   2774     1  180.0000771  0.4184000  2
   2756   2758   2759   2774     1  0.0000000  1.6024720  3
   2756   2772   2774   2759     1  180.0000771  0.8368000  1
   2756   2772   2774   2759     1  180.0000771  1.0460000  2
   2756   2772   2774   2759     1  0.0000000  0.7531200  3
   2756   2772   2774   2776     1  0.0000000  0.6508444  3
   2753   2756   2758   2759     1  180.0000771  0.4184000  2
   2753   2756   2758   2759     1  0.0000000  1.6024720  3
   2753   2756   2772   2774     1  180.0000771  0.8368000  1
   2753   2756   2772   2774     1  180.0000771  1.0460000  2
   2753   2756   2772   2774     1  0.0000000  0.7531200  3
   2753   2756   2772   2778     1  0.0000000  0.6508444  3
   2752   2753   2756   2758     1  0.0000000  0.6508444  3
   2752   2753   2756   2772     1  299.6901286  -1.5060182  1
   2752   2753   2756   2772     1  274.1001175  5.1381528  2
   2752   2753   2756   2772     1  342.2101465  3.2676873  3
   2751   2749   2752   2753     1  0.0000000  1.0460000  3
   2750   2749   2752   2753     1  0.0000000  1.0460000  3
   2749   2752   2753   2756     1  0.0000000  1.6038667  3
     21     18     20     24     4  180.0000771  4.6024000  2
     15     18     16     17     4  180.0000771  43.9320000  2
     25     12     11      9     4  180.0000771  4.1840000  2
     45     52     54     55     4  180.0000771  43.9320000  2
     48     52     50     51     4  180.0000771  43.9320000  2
     54     46     45     43     4  180.0000771  4.1840000  2
     75     82     84     85     4  180.0000771  43.9320000  2
     78     82     80     81     4  180.0000771  43.9320000  2
     84     76     75     73     4  180.0000771  4.1840000  2
    105    112    114    115     4  180.0000771  43.9320000  2
    108    112    110    111     4  180.0000771  43.9320000  2
    114    106    105    103     4  180.0000771  4.1840000  2
    135    142    144    145     4  180.0000771  43.9320000  2
    138    142    140    141     4  180.0000771  43.9320000  2
    144    136    135    133     4  180.0000771  4.1840000  2
    165    172    174    175     4  180.0000771  43.9320000  2
    168    172    170    171     4  180.0000771  43.9320000  2
    174    166    165    163     4  180.0000771  4.1840000  2
    199    201    200    204     4  180.0000771  4.6024000  2
    208    196    195    193     4  180.0000771  4.1840000  2
    232    234    233    237     4  180.0000771  4.6024000  2
    229    241    228    226     4  180.0000771  4.1840000  2
    265    267    266    270     4  180.0000771  4.6024000  2
    262    274    261    259     4  180.0000771  4.1840000  2
    294    303    304    305     4  180.0000771  43.9320000  2
    297    300    299    303     4  180.0000771  4.6024000  2
    304    295    294    292     4  180.0000771  4.1840000  2
    335    332    334    338     4  180.0000771  4.6024000  2
    329    332    330    331     4  180.0000771  43.9320000  2
    339    326    325    323     4  180.0000771  4.1840000  2
    369    366    368    372     4  180.0000771  4.6024000  2
    363    366    364    365     4  180.0000771  43.9320000  2
    373    360    359    357     4  180.0000771  4.1840000  2
    403    400    402    406     4  180.0000771  4.6024000  2
    397    400    398    399     4  180.0000771  43.9320000  2
    407    394    393    391     4  180.0000771  4.1840000  2
    427    434    436    437     4  180.0000771  43.9320000  2
    430    434    432    433     4  180.0000771  43.9320000  2
    436    428    427    425     4  180.0000771  4.1840000  2
    457    464    466    467     4  180.0000771  43.9320000  2
    460    464    462    463     4  180.0000771  43.9320000  2
    466    458    457    455     4  180.0000771  4.1840000  2
    487    494    496    497     4  180.0000771  43.9320000  2
    490    494    492    493     4  180.0000771  43.9320000  2
    496    488    487    485     4  180.0000771  4.1840000  2
    527    524    526    530     4  180.0000771  4.6024000  2
    521    524    522    523     4  180.0000771  43.9320000  2
    531    518    517    515     4  180.0000771  4.1840000  2
    551    560    561    562     4  180.0000771  43.9320000  2
    554    557    556    560     4  180.0000771  4.6024000  2
    561    552    551    549     4  180.0000771  4.1840000  2
    592    589    591    595     4  180.0000771  4.6024000  2
    586    589    587    588     4  180.0000771  43.9320000  2
    596    583    582    580     4  180.0000771  4.1840000  2
    626    623    625    629     4  180.0000771  4.6024000  2
    620    623    621    622     4  180.0000771  43.9320000  2
    630    617    616    614     4  180.0000771  4.1840000  2
    650    657    659    660     4  180.0000771  43.9320000  2
    653    657    655    656     4  180.0000771  43.9320000  2
    659    651    650    648     4  180.0000771  4.1840000  2
    690    687    689    693     4  180.0000771  4.6024000  2
    684    687    685    686     4  180.0000771  43.9320000  2
    694    681    680    678     4  180.0000771  4.1840000  2
    714    721    723    724     4  180.0000771  43.9320000  2
    717    721    719    720     4  180.0000771  43.9320000  2
    723    715    714    712     4  180.0000771  4.1840000  2
    748    750    749    753     4  180.0000771  4.6024000  2
    745    757    744    742     4  180.0000771  4.1840000  2
    781    783    782    786     4  180.0000771  4.6024000  2
    778    790    777    775     4  180.0000771  4.1840000  2
    820    817    819    823     4  180.0000771  4.6024000  2
    814    817    815    816     4  180.0000771  43.9320000  2
    824    811    810    808     4  180.0000771  4.1840000  2
    844    851    853    854     4  180.0000771  43.9320000  2
    847    851    849    850     4  180.0000771  43.9320000  2
    853    845    844    842     4  180.0000771  4.1840000  2
    884    881    883    887     4  180.0000771  4.6024000  2
    878    881    879    880     4  180.0000771  43.9320000  2
    888    875    874    872     4  180.0000771  4.1840000  2
    908    917    918    919     4  180.0000771  43.9320000  2
    911    914    913    917     4  180.0000771  4.6024000  2
    918    909    908    906     4  180.0000771  4.1840000  2
    943    945    944    948     4  180.0000771  4.6024000  2
    940    952    939    937     4  180.0000771  4.1840000  2
    982    979    981    985     4  180.0000771  4.6024000  2
    976    979    977    978     4  180.0000771  43.9320000  2
    986    973    972    970     4  180.0000771  4.1840000  2
   1006   1015   1016   1017     4  180.0000771  43.9320000  2
   1009   1012   1011   1015     4  180.0000771  4.6024000  2
   1016   1007   1006   1004     4  180.0000771  4.1840000  2
   1037   1046   1047   1048     4  180.0000771  43.9320000  2
   1040   1043   1042   1046     4  180.0000771  4.6024000  2
   1047   1038   1037   1035     4  180.0000771  4.1840000  2
   1068   1077   1078   1079     4  180.0000771  43.9320000  2
   1071   1074   1073   1077     4  180.0000771  4.6024000  2
   1078   1069   1068   1066     4  180.0000771  4.1840000  2
   1109   1106   1108   1112     4  180.0000771  4.6024000  2
   1103   1106   1104   1105     4  180.0000771  43.9320000  2
   1113   1100   1099   1097     4  180.0000771  4.1840000  2
   1133   1140   1142   1143     4  180.0000771  43.9320000  2
   1136   1140   1138   1139     4  180.0000771  43.9320000  2
   1142   1134   1133   1131     4  180.0000771  4.1840000  2
   1163   1172   1173   1174     4  180.0000771  43.9320000  2
   1166   1169   1168   1172     4  180.0000771  4.6024000  2
   1173   1164   1163   1161     4  180.0000771  4.1840000  2
   1194   1201   1203   1204     4  180.0000771  43.9320000  2
   1197   1201   1199   1200     4  180.0000771  43.9320000  2
   1203   1195   1194   1192     4  180.0000771  4.1840000  2
   1224   1231   1233   1234     4  180.0000771  43.9320000  2
   1227   1231   1229   1230     4  180.0000771  43.9320000  2
   1233   1225   1224   1222     4  180.0000771  4.1840000  2
   1258   1260   1259   1263     4  180.0000771  4.6024000  2
   1255   1267   1254   1252     4  180.0000771  4.1840000  2
   1287   1296   1297   1298     4  180.0000771  43.9320000  2
   1290   1293   1292   1296     4  180.0000771  4.6024000  2
   1297   1288   1287   1285     4  180.0000771  4.1840000  2
   1322   1324   1323   1327     4  180.0000771  4.6024000  2
   1319   1331   1318   1316     4  180.0000771  4.1840000  2
   1351   1360   1361   1362     4  180.0000771  43.9320000  2
   1354   1357   1356   1360     4  180.0000771  4.6024000  2
   1361   1352   1351   1349     4  180.0000771  4.1840000  2
   1382   1391   1392   1393     4  180.0000771  43.9320000  2
   1385   1388   1387   1391     4  180.0000771  4.6024000  2
   1392   1383   1382   1380     4  180.0000771  4.1840000  2
   1423   1420   1422   1426     4  180.0000771  4.6024000  2
   1417   1420   1418   1419     4  180.0000771  43.9320000  2
   1427   1414   1413   1411     4  180.0000771  4.1840000  2
   1447   1454   1456   1457     4  180.0000771  43.9320000  2
   1450   1454   1452   1453     4  180.0000771  43.9320000  2
   1456   1448   1447   1445     4  180.0000771  4.1840000  2
   1487   1484   1486   1490     4  180.0000771  4.6024000  2
   1481   1484   1482   1483     4  180.0000771  43.9320000  2
   1491   1478   1477   1475     4  180.0000771  4.1840000  2
   1511   1520   1521   1522     4  180.0000771  43.9320000  2
   1514   1517   1516   1520     4  180.0000771  4.6024000  2
   1521   1512   1511   1509     4  180.0000771  4.1840000  2
   1552   1549   1551   1555     4  180.0000771  4.6024000  2
   1546   1549   1547   1548     4  180.0000771  43.9320000  2
   1556   1543   1542   1540     4  180.0000771  4.1840000  2
   1586   1583   1585   1589     4  180.0000771  4.6024000  2
   1580   1583   1581   1582     4  180.0000771  43.9320000  2
   1590   1577   1576   1574     4  180.0000771  4.1840000  2
   1610   1619   1620   1621     4  180.0000771  43.9320000  2
   1613   1616   1615   1619     4  180.0000771  4.6024000  2
   1620   1611   1610   1608     4  180.0000771  4.1840000  2
   1645   1647   1646   1650     4  180.0000771  4.6024000  2
   1642   1654   1641   1639     4  180.0000771  4.1840000  2
   1674   1683   1684   1685     4  180.0000771  43.9320000  2
   1677   1680   1679   1683     4  180.0000771  4.6024000  2
   1684   1675   1674   1672     4  180.0000771  4.1840000  2
   1709   1711   1710   1714     4  180.0000771  4.6024000  2
   1706   1718   1705   1703     4  180.0000771  4.1840000  2
   1748   1745   1747   1751     4  180.0000771  4.6024000  2
   1742   1745   1743   1744     4  180.0000771  43.9320000  2
   1752   1739   1738   1736     4  180.0000771  4.1840000  2
   1782   1779   1781   1785     4  180.0000771  4.6024000  2
   1776   1779   1777   1778     4  180.0000771  43.9320000  2
   1786   1773   1772   1770     4  180.0000771  4.1840000  2
   1806   1815   1816   1817     4  180.0000771  43.9320000  2
   1809   1812   1811   1815     4  180.0000771  4.6024000  2
   1816   1807   1806   1804     4  180.0000771  4.1840000  2
   1841   1843   1842   1846     4  180.0000771  4.6024000  2
   1838   1850   1837   1835     4  180.0000771  4.1840000  2
   1870   1879   1880   1881     4  180.0000771  43.9320000  2
   1873   1876   1875   1879     4  180.0000771  4.6024000  2
   1880   1871   1870   1868     4  180.0000771  4.1840000  2
   1901   1908   1910   1911     4  180.0000771  43.9320000  2
   1904   1908   1906   1907     4  180.0000771  43.9320000  2
   1910   1902   1901   1899     4  180.0000771  4.1840000  2
   1935   1937   1936   1940     4  180.0000771  4.6024000  2
   1932   1944   1931   1929     4  180.0000771  4.1840000  2
   1974   1971   1973   1977     4  180.0000771  4.6024000  2
   1968   1971   1969   1970     4  180.0000771  43.9320000  2
   1978   1965   1964   1962     4  180.0000771  4.1840000  2
   1998   2005   2007   2008     4  180.0000771  43.9320000  2
   2001   2005   2003   2004     4  180.0000771  43.9320000  2
   2007   1999   1998   1996     4  180.0000771  4.1840000  2
   2032   2034   2033   2037     4  180.0000771  4.6024000  2
   2029   2041   2028   2026     4  180.0000771  4.1840000  2
   2061   2070   2071   2072     4  180.0000771  43.9320000  2
   2064   2067   2066   2070     4  180.0000771  4.6024000  2
   2071   2062   2061   2059     4  180.0000771  4.1840000  2
   2092   2099   2101   2102     4  180.0000771  43.9320000  2
   2095   2099   2097   2098     4  180.0000771  43.9320000  2
   2101   2093   2092   2090     4  180.0000771  4.1840000  2
   2132   2129   2131   2135     4  180.0000771  4.6024000  2
   2126   2129   2127   2128     4  180.0000771  43.9320000  2
   2136   2123   2122   2120     4  180.0000771  4.1840000  2
   2160   2162   2161   2165     4  180.0000771  4.6024000  2
   2157   2169   2156   2154     4  180.0000771  4.1840000  2
   2189   2196   2198   2199     4  180.0000771  43.9320000  2
   2192   2196   2194   2195     4  180.0000771  43.9320000  2
   2198   2190   2189   2187     4  180.0000771  4.1840000  2
   2229   2226   2228   2232     4  180.0000771  4.6024000  2
   2223   2226   2224   2225     4  180.0000771  43.9320000  2
   2233   2220   2219   2217     4  180.0000771  4.1840000  2
   2253   2260   2262   2263     4  180.0000771  43.9320000  2
   2256   2260   2258   2259     4  180.0000771  43.9320000  2
   2262   2254   2253   2251     4  180.0000771  4.1840000  2
   2283   2292   2293   2294     4  180.0000771  43.9320000  2
   2286   2289   2288   2292     4  180.0000771  4.6024000  2
   2293   2284   2283   2281     4  180.0000771  4.1840000  2
   2324   2321   2323   2327     4  180.0000771  4.6024000  2
   2318   2321   2319   2320     4  180.0000771  43.9320000  2
   2328   2315   2314   2312     4  180.0000771  4.1840000  2
   2348   2355   2357   2358     4  180.0000771  43.9320000  2
   2351   2355   2353   2354     4  180.0000771  43.9320000  2
   2357   2349   2348   2346     4  180.0000771  4.1840000  2
   2382   2384   2383   2387     4  180.0000771  4.6024000  2
   2379   2391   2378   2376     4  180.0000771  4.1840000  2
   2411   2418   2420   2421     4  180.0000771  43.9320000  2
   2414   2418   2416   2417     4  180.0000771  43.9320000  2
   2420   2412   2411   2409     4  180.0000771  4.1840000  2
   2445   2447   2446   2450     4  180.0000771  4.6024000  2
   2442   2454   2441   2439     4  180.0000771  4.1840000  2
   2474   2483   2484   2485     4  180.0000771  43.9320000  2
   2477   2480   2479   2483     4  180.0000771  4.6024000  2
   2484   2475   2474   2472     4  180.0000771  4.1840000  2
   2509   2511   2510   2514     4  180.0000771  4.6024000  2
   2506   2518   2505   2503     4  180.0000771  4.1840000  2
   2548   2545   2547   2551     4  180.0000771  4.6024000  2
   2542   2545   2543   2544     4  180.0000771  43.9320000  2
   2552   2539   2538   2536     4  180.0000771  4.1840000  2
   2582   2579   2581   2585     4  180.0000771  4.6024000  2
   2576   2579   2577   2578     4  180.0000771  43.9320000  2
   2586   2573   2572   2570     4  180.0000771  4.1840000  2
   2616   2613   2615   2619     4  180.0000771  4.6024000  2
   2610   2613   2611   2612     4  180.0000771  43.9320000  2
   2620   2607   2606   2604     4  180.0000771  4.1840000  2
   2640   2649   2650   2651     4  180.0000771  43.9320000  2
   2643   2646   2645   2649     4  180.0000771  4.6024000  2
   2650   2641   2640   2638     4  180.0000771  4.1840000  2
   2671   2678   2680   2681     4  180.0000771  43.9320000  2
   2674   2678   2676   2677     4  180.0000771  43.9320000  2
   2680   2672   2671   2669     4  180.0000771  4.1840000  2
   2701   2708   2710   2711     4  180.0000771  43.9320000  2
   2704   2708   2706   2707     4  180.0000771  43.9320000  2
   2710   2702   2701   2699     4  180.0000771  4.1840000  2
   2731   2738   2740   2741     4  180.0000771  43.9320000  2
   2734   2738   2736   2737     4  180.0000771  43.9320000  2
   2740   2732   2731   2729     4  180.0000771  4.1840000  2
   2761   2768   2770   2771     4  180.0000771  43.9320000  2
   2764   2768   2766   2767     4  180.0000771  43.9320000  2
   2770   2762   2761   2759     4  180.0000771  4.1840000  2
     29     28     26     32     1  0.0000000  1.0460000  1
     29     28     26     32     1  0.0000000  0.0000000  3
     29     28     30     31     1  0.0000000  0.6973333  3
     27     26     28     29     1  0.0000000  0.6508444  3
     27     26     28     30     1  0.0000000  1.0460000  1
     27     26     28     30     1  0.0000000  0.0000000  3
     27     26     32     33     1  0.0000000  1.6038667  3
     26     28     30     31     1  0.0000000  1.0460000  1
     26     28     30     31     1  0.0000000  0.6694400  3
     23     21     20     24     1  180.0000771  10.0416000  2
     22     21     20     24     1  180.0000771  10.0416000  2
     19     18     20     21     1  180.0000771  6.2760000  2
     19     18     20     24     1  180.0000771  6.2760000  2
     18     20     21     22     1  180.0000771  10.0416000  2
     18     20     21     23     1  180.0000771  10.0416000  2
     17     16     18     19     1  180.0000771  5.6484000  2
     15     16     18     19     1  180.0000771  5.6484000  2
     13     12     11     25     1  180.0000771  7.1128000  2
     13     12     14     15     1  180.0000771  41.8400000  2
     11      9     28     29     1  0.0000000  0.6508444  3
     10      9     11     12     1  0.0000000  0.0000000  2
     10      9     11     25     1  0.0000000  0.0000000  2
     10      9     28     26     1  0.0000000  0.6508444  3
     10      9     28     29     1  0.0000000  0.6508444  3
     10      9     28     30     1  0.0000000  0.6508444  3
      9     11     12     13     1  180.0000771  7.1128000  2
      9     28     26     27     1  0.0000000  0.6508444  3
      9     28     30     31     1  0.0000000  1.0460000  1
      9     28     30     31     1  0.0000000  0.6694400  3
      8      6     26     27     1  0.0000000  1.0460000  1
      8      6     26     27     1  0.0000000  0.0000000  3
      8      9     28     29     1  0.0000000  1.0460000  1
      8      9     28     29     1  0.0000000  0.0000000  3
      7      6      8      9     1  0.0000000  1.6038667  3
      7      6     26     27     1  0.0000000  0.6508444  3
      7      6     26     28     1  0.0000000  0.6508444  3
      7      6     26     32     1  0.0000000  1.0460000  1
      7      6     26     32     1  0.0000000  0.0000000  3
      6      8      9     10     1  0.0000000  1.6038667  3
      6     26     28     29     1  0.0000000  0.6508444  3
      5      3      6      7     1  0.0000000  0.6508444  3
      5      3      6      8     1  0.0000000  1.0460000  1
      5      3      6      8     1  0.0000000  0.0000000  3
      5      3      6     26     1  0.0000000  0.6508444  3
      4      3      6      7     1  0.0000000  0.6508444  3
      4      3      6      8     1  0.0000000  1.0460000  1
      4      3      6      8     1  0.0000000  0.0000000  3
      4      3      6     26     1  0.0000000  0.6508444  3
      3      6     26     27     1  0.0000000  0.6508444  3
      2      3      6      7     1  0.0000000  1.0460000  1
      2      3      6      7     1  0.0000000  0.0000000  3
      1      2      3      4     1  0.0000000  0.6973333  3
      1      2      3      5     1  0.0000000  0.6973333  3
      1      2      3      6     1  0.0000000  0.6973333  3
     59     58     56     62     1  0.0000000  1.0460000  1
     59     58     56     62     1  0.0000000  0.0000000  3
     59     58     60     61     1  0.0000000  0.6973333  3
     57     56     58     59     1  0.0000000  0.6508444  3
     57     56     58     60     1  0.0000000  1.0460000  1
     57     56     58     60     1  0.0000000  0.0000000  3
     57     56     62     63     1  0.0000000  1.6038667  3
     56     58     60     61     1  0.0000000  1.0460000  1
     56     58     60     61     1  0.0000000  0.6694400  3
     53     52     54     55     1  180.0000771  5.6484000  2
     51     50     52     53     1  180.0000771  5.6484000  2
     49     48     50     51     1  180.0000771  9.1002000  2
     49     48     50     52     1  180.0000771  9.1002000  2
     48     50     52     53     1  180.0000771  5.6484000  2
     47     46     45     54     1  180.0000771  7.7404000  2
     47     46     48     49     1  180.0000771  27.8236000  2
     47     46     48     50     1  180.0000771  27.8236000  2
     45     43     58     59     1  0.0000000  0.6508444  3
     45     46     48     49     1  180.0000771  27.8236000  2
     45     54     52     53     1  180.0000771  5.6484000  2
     44     43     45     46     1  0.0000000  0.0000000  2
     44     43     45     54     1  0.0000000  0.0000000  2
     44     43     58     56     1  0.0000000  0.6508444  3
     44     43     58     59     1  0.0000000  0.6508444  3
     44     43     58     60     1  0.0000000  0.6508444  3
     43     45     46     47     1  180.0000771  7.7404000  2
     43     58     56     57     1  0.0000000  0.6508444  3
     43     58     60     61     1  0.0000000  1.0460000  1
     43     58     60     61     1  0.0000000  0.6694400  3
     42     40     56     57     1  0.0000000  1.0460000  1
     42     40     56     57     1  0.0000000  0.0000000  3
     42     43     58     59     1  0.0000000  1.0460000  1
     42     43     58     59     1  0.0000000  0.0000000  3
     41     40     42     43     1  0.0000000  1.6038667  3
     41     40     56     57     1  0.0000000  0.6508444  3
     41     40     56     58     1  0.0000000  0.6508444  3
     41     40     56     62     1  0.0000000  1.0460000  1
     41     40     56     62     1  0.0000000  0.0000000  3
     40     42     43     44     1  0.0000000  1.6038667  3
     40     56     58     59     1  0.0000000  0.6508444  3
     39     37     40     41     1  0.0000000  0.6508444  3
     39     37     40     42     1  0.0000000  1.0460000  1
     39     37     40     42     1  0.0000000  0.0000000  3
     39     37     40     56     1  0.0000000  0.6508444  3
     38     37     40     41     1  0.0000000  0.6508444  3
     38     37     40     42     1  0.0000000  1.0460000  1
     38     37     40     42     1  0.0000000  0.0000000  3
     38     37     40     56     1  0.0000000  0.6508444  3
     37     40     56     57     1  0.0000000  0.6508444  3
     36     37     40     41     1  0.0000000  1.0460000  1
     36     37     40     41     1  0.0000000  0.0000000  3
     33     36     37     38     1  0.0000000  1.6038667  3
     33     36     37     39     1  0.0000000  1.6038667  3
     89     88     86     92     1  0.0000000  1.0460000  1
     89     88     86     92     1  0.0000000  0.0000000  3
     89     88     90     91     1  0.0000000  0.6973333  3
     87     86     88     89     1  0.0000000  0.6508444  3
     87     86     88     90     1  0.0000000  1.0460000  1
     87     86     88     90     1  0.0000000  0.0000000  3
     87     86     92     93     1  0.0000000  1.6038667  3
     86     88     90     91     1  0.0000000  1.0460000  1
     86     88     90     91     1  0.0000000  0.6694400  3
     83     82     84     85     1  180.0000771  5.6484000  2
     81     80     82     83     1  180.0000771  5.6484000  2
     79     78     80     81     1  180.0000771  9.1002000  2
     79     78     80     82     1  180.0000771  9.1002000  2
     78     80     82     83     1  180.0000771  5.6484000  2
     77     76     75     84     1  180.0000771  7.7404000  2
     77     76     78     79     1  180.0000771  27.8236000  2
     77     76     78     80     1  180.0000771  27.8236000  2
     75     73     88     89     1  0.0000000  0.6508444  3
     75     76     78     79     1  180.0000771  27.8236000  2
     75     84     82     83     1  180.0000771  5.6484000  2
     74     73     75     76     1  0.0000000  0.0000000  2
     74     73     75     84     1  0.0000000  0.0000000  2
     74     73     88     86     1  0.0000000  0.6508444  3
     74     73     88     89     1  0.0000000  0.6508444  3
     74     73     88     90     1  0.0000000  0.6508444  3
     73     75     76     77     1  180.0000771  7.7404000  2
     73     88     86     87     1  0.0000000  0.6508444  3
     73     88     90     91     1  0.0000000  1.0460000  1
     73     88     90     91     1  0.0000000  0.6694400  3
     72     70     86     87     1  0.0000000  1.0460000  1
     72     70     86     87     1  0.0000000  0.0000000  3
     72     73     88     89     1  0.0000000  1.0460000  1
     72     73     88     89     1  0.0000000  0.0000000  3
     71     70     72     73     1  0.0000000  1.6038667  3
     71     70     86     87     1  0.0000000  0.6508444  3
     71     70     86     88     1  0.0000000  0.6508444  3
     71     70     86     92     1  0.0000000  1.0460000  1
     71     70     86     92     1  0.0000000  0.0000000  3
     70     72     73     74     1  0.0000000  1.6038667  3
     70     86     88     89     1  0.0000000  0.6508444  3
     69     67     70     71     1  0.0000000  0.6508444  3
     69     67     70     72     1  0.0000000  1.0460000  1
     69     67     70     72     1  0.0000000  0.0000000  3
     69     67     70     86     1  0.0000000  0.6508444  3
     68     67     70     71     1  0.0000000  0.6508444  3
     68     67     70     72     1  0.0000000  1.0460000  1
     68     67     70     72     1  0.0000000  0.0000000  3
     68     67     70     86     1  0.0000000  0.6508444  3
     67     70     86     87     1  0.0000000  0.6508444  3
     66     67     70     71     1  0.0000000  1.0460000  1
     66     67     70     71     1  0.0000000  0.0000000  3
     63     66     67     68     1  0.0000000  1.6038667  3
     63     66     67     69     1  0.0000000  1.6038667  3
    119    118    116    122     1  0.0000000  1.0460000  1
    119    118    116    122     1  0.0000000  0.0000000  3
    119    118    120    121     1  0.0000000  0.6973333  3
    117    116    118    119     1  0.0000000  0.6508444  3
    117    116    118    120     1  0.0000000  1.0460000  1
    117    116    118    120     1  0.0000000  0.0000000  3
    117    116    122    123     1  0.0000000  1.6038667  3
    116    118    120    121     1  0.0000000  1.0460000  1
    116    118    120    121     1  0.0000000  0.6694400  3
    113    112    114    115     1  180.0000771  5.6484000  2
    111    110    112    113     1  180.0000771  5.6484000  2
    109    108    110    111     1  180.0000771  9.1002000  2
    109    108    110    112     1  180.0000771  9.1002000  2
    108    110    112    113     1  180.0000771  5.6484000  2
    107    106    105    114     1  180.0000771  7.7404000  2
    107    106    108    109     1  180.0000771  27.8236000  2
    107    106    108    110     1  180.0000771  27.8236000  2
    105    103    118    119     1  0.0000000  0.6508444  3
    105    106    108    109     1  180.0000771  27.8236000  2
    105    114    112    113     1  180.0000771  5.6484000  2
    104    103    105    106     1  0.0000000  0.0000000  2
    104    103    105    114     1  0.0000000  0.0000000  2
    104    103    118    116     1  0.0000000  0.6508444  3
    104    103    118    119     1  0.0000000  0.6508444  3
    104    103    118    120     1  0.0000000  0.6508444  3
    103    105    106    107     1  180.0000771  7.7404000  2
    103    118    116    117     1  0.0000000  0.6508444  3
    103    118    120    121     1  0.0000000  1.0460000  1
    103    118    120    121     1  0.0000000  0.6694400  3
    102    100    116    117     1  0.0000000  1.0460000  1
    102    100    116    117     1  0.0000000  0.0000000  3
    102    103    118    119     1  0.0000000  1.0460000  1
    102    103    118    119     1  0.0000000  0.0000000  3
    101    100    102    103     1  0.0000000  1.6038667  3
    101    100    116    117     1  0.0000000  0.6508444  3
    101    100    116    118     1  0.0000000  0.6508444  3
    101    100    116    122     1  0.0000000  1.0460000  1
    101    100    116    122     1  0.0000000  0.0000000  3
    100    102    103    104     1  0.0000000  1.6038667  3
    100    116    118    119     1  0.0000000  0.6508444  3
     99     97    100    101     1  0.0000000  0.6508444  3
     99     97    100    102     1  0.0000000  1.0460000  1
     99     97    100    102     1  0.0000000  0.0000000  3
     99     97    100    116     1  0.0000000  0.6508444  3
     98     97    100    101     1  0.0000000  0.6508444  3
     98     97    100    102     1  0.0000000  1.0460000  1
     98     97    100    102     1  0.0000000  0.0000000  3
     98     97    100    116     1  0.0000000  0.6508444  3
     97    100    116    117     1  0.0000000  0.6508444  3
     96     97    100    101     1  0.0000000  1.0460000  1
     96     97    100    101     1  0.0000000  0.0000000  3
     93     96     97     98     1  0.0000000  1.6038667  3
     93     96     97     99     1  0.0000000  1.6038667  3
    149    148    146    152     1  0.0000000  1.0460000  1
    149    148    146    152     1  0.0000000  0.0000000  3
    149    148    150    151     1  0.0000000  0.6973333  3
    147    146    148    149     1  0.0000000  0.6508444  3
    147    146    148    150     1  0.0000000  1.0460000  1
    147    146    148    150     1  0.0000000  0.0000000  3
    147    146    152    153     1  0.0000000  1.6038667  3
    146    148    150    151     1  0.0000000  1.0460000  1
    146    148    150    151     1  0.0000000  0.6694400  3
    143    142    144    145     1  180.0000771  5.6484000  2
    141    140    142    143     1  180.0000771  5.6484000  2
    139    138    140    141     1  180.0000771  9.1002000  2
    139    138    140    142     1  180.0000771  9.1002000  2
    138    140    142    143     1  180.0000771  5.6484000  2
    137    136    135    144     1  180.0000771  7.7404000  2
    137    136    138    139     1  180.0000771  27.8236000  2
    137    136    138    140     1  180.0000771  27.8236000  2
    135    133    148    149     1  0.0000000  0.6508444  3
    135    136    138    139     1  180.0000771  27.8236000  2
    135    144    142    143     1  180.0000771  5.6484000  2
    134    133    135    136     1  0.0000000  0.0000000  2
    134    133    135    144     1  0.0000000  0.0000000  2
    134    133    148    146     1  0.0000000  0.6508444  3
    134    133    148    149     1  0.0000000  0.6508444  3
    134    133    148    150     1  0.0000000  0.6508444  3
    133    135    136    137     1  180.0000771  7.7404000  2
    133    148    146    147     1  0.0000000  0.6508444  3
    133    148    150    151     1  0.0000000  1.0460000  1
    133    148    150    151     1  0.0000000  0.6694400  3
    132    130    146    147     1  0.0000000  1.0460000  1
    132    130    146    147     1  0.0000000  0.0000000  3
    132    133    148    149     1  0.0000000  1.0460000  1
    132    133    148    149     1  0.0000000  0.0000000  3
    131    130    132    133     1  0.0000000  1.6038667  3
    131    130    146    147     1  0.0000000  0.6508444  3
    131    130    146    148     1  0.0000000  0.6508444  3
    131    130    146    152     1  0.0000000  1.0460000  1
    131    130    146    152     1  0.0000000  0.0000000  3
    130    132    133    134     1  0.0000000  1.6038667  3
    130    146    148    149     1  0.0000000  0.6508444  3
    129    127    130    131     1  0.0000000  0.6508444  3
    129    127    130    132     1  0.0000000  1.0460000  1
    129    127    130    132     1  0.0000000  0.0000000  3
    129    127    130    146     1  0.0000000  0.6508444  3
    128    127    130    131     1  0.0000000  0.6508444  3
    128    127    130    132     1  0.0000000  1.0460000  1
    128    127    130    132     1  0.0000000  0.0000000  3
    128    127    130    146     1  0.0000000  0.6508444  3
    127    130    146    147     1  0.0000000  0.6508444  3
    126    127    130    131     1  0.0000000  1.0460000  1
    126    127    130    131     1  0.0000000  0.0000000  3
    123    126    127    128     1  0.0000000  1.6038667  3
    123    126    127    129     1  0.0000000  1.6038667  3
    179    178    176    182     1  0.0000000  1.0460000  1
    179    178    176    182     1  0.0000000  0.0000000  3
    179    178    180    181     1  0.0000000  0.6973333  3
    177    176    178    179     1  0.0000000  0.6508444  3
    177    176    178    180     1  0.0000000  1.0460000  1
    177    176    178    180     1  0.0000000  0.0000000  3
    177    176    182    183     1  0.0000000  1.6038667  3
    176    178    180    181     1  0.0000000  1.0460000  1
    176    178    180    181     1  0.0000000  0.6694400  3
    173    172    174    175     1  180.0000771  5.6484000  2
    171    170    172    173     1  180.0000771  5.6484000  2
    169    168    170    171     1  180.0000771  9.1002000  2
    169    168    170    172     1  180.0000771  9.1002000  2
    168    170    172    173     1  180.0000771  5.6484000  2
    167    166    165    174     1  180.0000771  7.7404000  2
    167    166    168    169     1  180.0000771  27.8236000  2
    167    166    168    170     1  180.0000771  27.8236000  2
    165    163    178    179     1  0.0000000  0.6508444  3
    165    166    168    169     1  180.0000771  27.8236000  2
    165    174    172    173     1  180.0000771  5.6484000  2
    164    163    165    166     1  0.0000000  0.0000000  2
    164    163    165    174     1  0.0000000  0.0000000  2
    164    163    178    176     1  0.0000000  0.6508444  3
    164    163    178    179     1  0.0000000  0.6508444  3
    164    163    178    180     1  0.0000000  0.6508444  3
    163    165    166    167     1  180.0000771  7.7404000  2
    163    178    176    177     1  0.0000000  0.6508444  3
    163    178    180    181     1  0.0000000  1.0460000  1
    163    178    180    181     1  0.0000000  0.6694400  3
    162    160    176    177     1  0.0000000  1.0460000  1
    162    160    176    177     1  0.0000000  0.0000000  3
    162    163    178    179     1  0.0000000  1.0460000  1
    162    163    178    179     1  0.0000000  0.0000000  3
    161    160    162    163     1  0.0000000  1.6038667  3
    161    160    176    177     1  0.0000000  0.6508444  3
    161    160    176    178     1  0.0000000  0.6508444  3
    161    160    176    182     1  0.0000000  1.0460000  1
    161    160    176    182     1  0.0000000  0.0000000  3
    160    162    163    164     1  0.0000000  1.6038667  3
    160    176    178    179     1  0.0000000  0.6508444  3
    159    157    160    161     1  0.0000000  0.6508444  3
    159    157    160    162     1  0.0000000  1.0460000  1
    159    157    160    162     1  0.0000000  0.0000000  3
    159    157    160    176     1  0.0000000  0.6508444  3
    158    157    160    161     1  0.0000000  0.6508444  3
    158    157    160    162     1  0.0000000  1.0460000  1
    158    157    160    162     1  0.0000000  0.0000000  3
    158    157    160    176     1  0.0000000  0.6508444  3
    157    160    176    177     1  0.0000000  0.6508444  3
    156    157    160    161     1  0.0000000  1.0460000  1
    156    157    160    161     1  0.0000000  0.0000000  3
    153    156    157    158     1  0.0000000  1.6038667  3
    153    156    157    159     1  0.0000000  1.6038667  3
    212    211    209    215     1  0.0000000  1.0460000  1
    212    211    209    215     1  0.0000000  0.0000000  3
    212    211    213    214     1  0.0000000  0.6973333  3
    210    209    211    212     1  0.0000000  0.6508444  3
    210    209    211    213     1  0.0000000  1.0460000  1
    210    209    211    213     1  0.0000000  0.0000000  3
    210    209    215    216     1  0.0000000  1.6038667  3
    209    211    213    214     1  0.0000000  1.0460000  1
    209    211    213    214     1  0.0000000  0.6694400  3
    206    205    207    208     1  180.0000771  28.4512000  2
    203    201    200    204     1  180.0000771  10.0416000  2
    202    201    200    204     1  180.0000771  10.0416000  2
    200    204    205    206     1  180.0000771  28.4512000  2
    199    200    201    202     1  180.0000771  10.0416000  2
    199    200    201    203     1  180.0000771  10.0416000  2
    197    196    195    208     1  180.0000771  7.1128000  2
    197    196    198    199     1  180.0000771  41.8400000  2
    195    193    211    212     1  0.0000000  0.6508444  3
    194    193    195    196     1  0.0000000  0.0000000  2
    194    193    195    208     1  0.0000000  0.0000000  2
    194    193    211    209     1  0.0000000  0.6508444  3
    194    193    211    212     1  0.0000000  0.6508444  3
    194    193    211    213     1  0.0000000  0.6508444  3
    193    195    196    197     1  180.0000771  7.1128000  2
    193    211    209    210     1  0.0000000  0.6508444  3
    193    211    213    214     1  0.0000000  1.0460000  1
    193    211    213    214     1  0.0000000  0.6694400  3
    192    190    209    210     1  0.0000000  1.0460000  1
    192    190    209    210     1  0.0000000  0.0000000  3
    192    193    211    212     1  0.0000000  1.0460000  1
    192    193    211    212     1  0.0000000  0.0000000  3
    191    190    192    193     1  0.0000000  1.6038667  3
    191    190    209    210     1  0.0000000  0.6508444  3
    191    190    209    211     1  0.0000000  0.6508444  3
    191    190    209    215     1  0.0000000  1.0460000  1
    191    190    209    215     1  0.0000000  0.0000000  3
    190    192    193    194     1  0.0000000  1.6038667  3
    190    209    211    212     1  0.0000000  0.6508444  3
    189    187    190    191     1  0.0000000  0.6508444  3
    189    187    190    192     1  0.0000000  1.0460000  1
    189    187    190    192     1  0.0000000  0.0000000  3
    189    187    190    209     1  0.0000000  0.6508444  3
    188    187    190    191     1  0.0000000  0.6508444  3
    188    187    190    192     1  0.0000000  1.0460000  1
    188    187    190    192     1  0.0000000  0.0000000  3
    188    187    190    209     1  0.0000000  0.6508444  3
    187    190    209    210     1  0.0000000  0.6508444  3
    186    187    190    191     1  0.0000000  1.0460000  1
    186    187    190    191     1  0.0000000  0.0000000  3
    183    186    187    188     1  0.0000000  1.6038667  3
    183    186    187    189     1  0.0000000  1.6038667  3
    245    244    242    248     1  0.0000000  1.0460000  1
    245    244    242    248     1  0.0000000  0.0000000  3
    245    244    246    247     1  0.0000000  0.6973333  3
    243    242    244    245     1  0.0000000  0.6508444  3
    243    242    244    246     1  0.0000000  1.0460000  1
    243    242    244    246     1  0.0000000  0.0000000  3
    243    242    248    249     1  0.0000000  1.6038667  3
    242    244    246    247     1  0.0000000  1.0460000  1
    242    244    246    247     1  0.0000000  0.6694400  3
    239    238    240    241     1  180.0000771  28.4512000  2
    236    234    233    237     1  180.0000771  10.0416000  2
    235    234    233    237     1  180.0000771  10.0416000  2
    233    237    238    239     1  180.0000771  28.4512000  2
    232    233    234    235     1  180.0000771  10.0416000  2
    232    233    234    236     1  180.0000771  10.0416000  2
    230    229    228    241     1  180.0000771  7.1128000  2
    230    229    231    232     1  180.0000771  41.8400000  2
    228    226    244    245     1  0.0000000  0.6508444  3
    227    226    228    229     1  0.0000000  0.0000000  2
    227    226    228    241     1  0.0000000  0.0000000  2
    227    226    244    242     1  0.0000000  0.6508444  3
    227    226    244    245     1  0.0000000  0.6508444  3
    227    226    244    246     1  0.0000000  0.6508444  3
    226    228    229    230     1  180.0000771  7.1128000  2
    226    244    242    243     1  0.0000000  0.6508444  3
    226    244    246    247     1  0.0000000  1.0460000  1
    226    244    246    247     1  0.0000000  0.6694400  3
    225    223    242    243     1  0.0000000  1.0460000  1
    225    223    242    243     1  0.0000000  0.0000000  3
    225    226    244    245     1  0.0000000  1.0460000  1
    225    226    244    245     1  0.0000000  0.0000000  3
    224    223    225    226     1  0.0000000  1.6038667  3
    224    223    242    243     1  0.0000000  0.6508444  3
    224    223    242    244     1  0.0000000  0.6508444  3
    224    223    242    248     1  0.0000000  1.0460000  1
    224    223    242    248     1  0.0000000  0.0000000  3
    223    225    226    227     1  0.0000000  1.6038667  3
    223    242    244    245     1  0.0000000  0.6508444  3
    222    220    223    224     1  0.0000000  0.6508444  3
    222    220    223    225     1  0.0000000  1.0460000  1
    222    220    223    225     1  0.0000000  0.0000000  3
    222    220    223    242     1  0.0000000  0.6508444  3
    221    220    223    224     1  0.0000000  0.6508444  3
    221    220    223    225     1  0.0000000  1.0460000  1
    221    220    223    225     1  0.0000000  0.0000000  3
    221    220    223    242     1  0.0000000  0.6508444  3
    220    223    242    243     1  0.0000000  0.6508444  3
    219    220    223    224     1  0.0000000  1.0460000  1
    219    220    223    224     1  0.0000000  0.0000000  3
    216    219    220    221     1  0.0000000  1.6038667  3
    216    219    220    222     1  0.0000000  1.6038667  3
    278    277    275    281     1  0.0000000  1.0460000  1
    278    277    275    281     1  0.0000000  0.0000000  3
    278    277    279    280     1  0.0000000  0.6973333  3
    276    275    277    278     1  0.0000000  0.6508444  3
    276    275    277    279     1  0.0000000  1.0460000  1
    276    275    277    279     1  0.0000000  0.0000000  3
    276    275    281    282     1  0.0000000  1.6038667  3
    275    277    279    280     1  0.0000000  1.0460000  1
    275    277    279    280     1  0.0000000  0.6694400  3
    272    271    273    274     1  180.0000771  28.4512000  2
    269    267    266    270     1  180.0000771  10.0416000  2
    268    267    266    270     1  180.0000771  10.0416000  2
    266    270    271    272     1  180.0000771  28.4512000  2
    265    266    267    268     1  180.0000771  10.0416000  2
    265    266    267    269     1  180.0000771  10.0416000  2
    263    262    261    274     1  180.0000771  7.1128000  2
    263    262    264    265     1  180.0000771  41.8400000  2
    261    259    277    278     1  0.0000000  0.6508444  3
    260    259    261    262     1  0.0000000  0.0000000  2
    260    259    261    274     1  0.0000000  0.0000000  2
    260    259    277    275     1  0.0000000  0.6508444  3
    260    259    277    278     1  0.0000000  0.6508444  3
    260    259    277    279     1  0.0000000  0.6508444  3
    259    261    262    263     1  180.0000771  7.1128000  2
    259    277    275    276     1  0.0000000  0.6508444  3
    259    277    279    280     1  0.0000000  1.0460000  1
    259    277    279    280     1  0.0000000  0.6694400  3
    258    256    275    276     1  0.0000000  1.0460000  1
    258    256    275    276     1  0.0000000  0.0000000  3
    258    259    277    278     1  0.0000000  1.0460000  1
    258    259    277    278     1  0.0000000  0.0000000  3
    257    256    258    259     1  0.0000000  1.6038667  3
    257    256    275    276     1  0.0000000  0.6508444  3
    257    256    275    277     1  0.0000000  0.6508444  3
    257    256    275    281     1  0.0000000  1.0460000  1
    257    256    275    281     1  0.0000000  0.0000000  3
    256    258    259    260     1  0.0000000  1.6038667  3
    256    275    277    278     1  0.0000000  0.6508444  3
    255    253    256    257     1  0.0000000  0.6508444  3
    255    253    256    258     1  0.0000000  1.0460000  1
    255    253    256    258     1  0.0000000  0.0000000  3
    255    253    256    275     1  0.0000000  0.6508444  3
    254    253    256    257     1  0.0000000  0.6508444  3
    254    253    256    258     1  0.0000000  1.0460000  1
    254    253    256    258     1  0.0000000  0.0000000  3
    254    253    256    275     1  0.0000000  0.6508444  3
    253    256    275    276     1  0.0000000  0.6508444  3
    252    253    256    257     1  0.0000000  1.0460000  1
    252    253    256    257     1  0.0000000  0.0000000  3
    249    252    253    254     1  0.0000000  1.6038667  3
    249    252    253    255     1  0.0000000  1.6038667  3
    309    308    306    312     1  0.0000000  1.0460000  1
    309    308    306    312     1  0.0000000  0.0000000  3
    309    308    310    311     1  0.0000000  0.6973333  3
    307    306    308    309     1  0.0000000  0.6508444  3
    307    306    308    310     1  0.0000000  1.0460000  1
    307    306    308    310     1  0.0000000  0.0000000  3
    307    306    312    313     1  0.0000000  1.6038667  3
    306    308    310    311     1  0.0000000  1.0460000  1
    306    308    310    311     1  0.0000000  0.6694400  3
    302    300    299    303     1  180.0000771  10.0416000  2
    301    300    299    303     1  180.0000771  10.0416000  2
    298    297    299    300     1  180.0000771  10.6692000  2
    298    297    299    303     1  180.0000771  10.6692000  2
    297    299    300    301     1  180.0000771  10.0416000  2
    297    299    300    302     1  180.0000771  10.0416000  2
    296    295    294    304     1  180.0000771  7.7404000  2
    296    295    297    298     1  180.0000771  27.8236000  2
    296    295    297    299     1  180.0000771  27.8236000  2
    294    292    308    309     1  0.0000000  0.6508444  3
    294    295    297    298     1  180.0000771  27.8236000  2
    293    292    294    295     1  0.0000000  0.0000000  2
    293    292    294    304     1  0.0000000  0.0000000  2
    293    292    308    306     1  0.0000000  0.6508444  3
    293    292    308    309     1  0.0000000  0.6508444  3
    293    292    308    310     1  0.0000000  0.6508444  3
    292    294    295    296     1  180.0000771  7.7404000  2
    292    308    306    307     1  0.0000000  0.6508444  3
    292    308    310    311     1  0.0000000  1.0460000  1
    292    308    310    311     1  0.0000000  0.6694400  3
    291    289    306    307     1  0.0000000  1.0460000  1
    291    289    306    307     1  0.0000000  0.0000000  3
    291    292    308    309     1  0.0000000  1.0460000  1
    291    292    308    309     1  0.0000000  0.0000000  3
    290    289    291    292     1  0.0000000  1.6038667  3
    290    289    306    307     1  0.0000000  0.6508444  3
    290    289    306    308     1  0.0000000  0.6508444  3
    290    289    306    312     1  0.0000000  1.0460000  1
    290    289    306    312     1  0.0000000  0.0000000  3
    289    291    292    293     1  0.0000000  1.6038667  3
    289    306    308    309     1  0.0000000  0.6508444  3
    288    286    289    290     1  0.0000000  0.6508444  3
    288    286    289    291     1  0.0000000  1.0460000  1
    288    286    289    291     1  0.0000000  0.0000000  3
    288    286    289    306     1  0.0000000  0.6508444  3
    287    286    289    290     1  0.0000000  0.6508444  3
    287    286    289    291     1  0.0000000  1.0460000  1
    287    286    289    291     1  0.0000000  0.0000000  3
    287    286    289    306     1  0.0000000  0.6508444  3
    286    289    306    307     1  0.0000000  0.6508444  3
    285    286    289    290     1  0.0000000  1.0460000  1
    285    286    289    290     1  0.0000000  0.0000000  3
    282    285    286    287     1  0.0000000  1.6038667  3
    282    285    286    288     1  0.0000000  1.6038667  3
    343    342    340    346     1  0.0000000  1.0460000  1
    343    342    340    346     1  0.0000000  0.0000000  3
    343    342    344    345     1  0.0000000  0.6973333  3
    341    340    342    343     1  0.0000000  0.6508444  3
    341    340    342    344     1  0.0000000  1.0460000  1
    341    340    342    344     1  0.0000000  0.0000000  3
    341    340    346    347     1  0.0000000  1.6038667  3
    340    342    344    345     1  0.0000000  1.0460000  1
    340    342    344    345     1  0.0000000  0.6694400  3
    337    335    334    338     1  180.0000771  10.0416000  2
    336    335    334    338     1  180.0000771  10.0416000  2
    333    332    334    335     1  180.0000771  6.2760000  2
    333    332    334    338     1  180.0000771  6.2760000  2
    332    334    335    336     1  180.0000771  10.0416000  2
    332    334    335    337     1  180.0000771  10.0416000  2
    331    330    332    333     1  180.0000771  5.6484000  2
    329    330    332    333     1  180.0000771  5.6484000  2
    327    326    325    339     1  180.0000771  7.1128000  2
    327    326    328    329     1  180.0000771  41.8400000  2
    325    323    342    343     1  0.0000000  0.6508444  3
    324    323    325    326     1  0.0000000  0.0000000  2
    324    323    325    339     1  0.0000000  0.0000000  2
    324    323    342    340     1  0.0000000  0.6508444  3
    324    323    342    343     1  0.0000000  0.6508444  3
    324    323    342    344     1  0.0000000  0.6508444  3
    323    325    326    327     1  180.0000771  7.1128000  2
    323    342    340    341     1  0.0000000  0.6508444  3
    323    342    344    345     1  0.0000000  1.0460000  1
    323    342    344    345     1  0.0000000  0.6694400  3
    322    320    340    341     1  0.0000000  1.0460000  1
    322    320    340    341     1  0.0000000  0.0000000  3
    322    323    342    343     1  0.0000000  1.0460000  1
    322    323    342    343     1  0.0000000  0.0000000  3
    321    320    322    323     1  0.0000000  1.6038667  3
    321    320    340    341     1  0.0000000  0.6508444  3
    321    320    340    342     1  0.0000000  0.6508444  3
    321    320    340    346     1  0.0000000  1.0460000  1
    321    320    340    346     1  0.0000000  0.0000000  3
    320    322    323    324     1  0.0000000  1.6038667  3
    320    340    342    343     1  0.0000000  0.6508444  3
    319    317    320    321     1  0.0000000  0.6508444  3
    319    317    320    322     1  0.0000000  1.0460000  1
    319    317    320    322     1  0.0000000  0.0000000  3
    319    317    320    340     1  0.0000000  0.6508444  3
    318    317    320    321     1  0.0000000  0.6508444  3
    318    317    320    322     1  0.0000000  1.0460000  1
    318    317    320    322     1  0.0000000  0.0000000  3
    318    317    320    340     1  0.0000000  0.6508444  3
    317    320    340    341     1  0.0000000  0.6508444  3
    316    317    320    321     1  0.0000000  1.0460000  1
    316    317    320    321     1  0.0000000  0.0000000  3
    313    316    317    318     1  0.0000000  1.6038667  3
    313    316    317    319     1  0.0000000  1.6038667  3
    377    376    374    380     1  0.0000000  1.0460000  1
    377    376    374    380     1  0.0000000  0.0000000  3
    377    376    378    379     1  0.0000000  0.6973333  3
    375    374    376    377     1  0.0000000  0.6508444  3
    375    374    376    378     1  0.0000000  1.0460000  1
    375    374    376    378     1  0.0000000  0.0000000  3
    375    374    380    381     1  0.0000000  1.6038667  3
    374    376    378    379     1  0.0000000  1.0460000  1
    374    376    378    379     1  0.0000000  0.6694400  3
    371    369    368    372     1  180.0000771  10.0416000  2
    370    369    368    372     1  180.0000771  10.0416000  2
    367    366    368    369     1  180.0000771  6.2760000  2
    367    366    368    372     1  180.0000771  6.2760000  2
    366    368    369    370     1  180.0000771  10.0416000  2
    366    368    369    371     1  180.0000771  10.0416000  2
    365    364    366    367     1  180.0000771  5.6484000  2
    363    364    366    367     1  180.0000771  5.6484000  2
    361    360    359    373     1  180.0000771  7.1128000  2
    361    360    362    363     1  180.0000771  41.8400000  2
    359    357    376    377     1  0.0000000  0.6508444  3
    358    357    359    360     1  0.0000000  0.0000000  2
    358    357    359    373     1  0.0000000  0.0000000  2
    358    357    376    374     1  0.0000000  0.6508444  3
    358    357    376    377     1  0.0000000  0.6508444  3
    358    357    376    378     1  0.0000000  0.6508444  3
    357    359    360    361     1  180.0000771  7.1128000  2
    357    376    374    375     1  0.0000000  0.6508444  3
    357    376    378    379     1  0.0000000  1.0460000  1
    357    376    378    379     1  0.0000000  0.6694400  3
    356    354    374    375     1  0.0000000  1.0460000  1
    356    354    374    375     1  0.0000000  0.0000000  3
    356    357    376    377     1  0.0000000  1.0460000  1
    356    357    376    377     1  0.0000000  0.0000000  3
    355    354    356    357     1  0.0000000  1.6038667  3
    355    354    374    375     1  0.0000000  0.6508444  3
    355    354    374    376     1  0.0000000  0.6508444  3
    355    354    374    380     1  0.0000000  1.0460000  1
    355    354    374    380     1  0.0000000  0.0000000  3
    354    356    357    358     1  0.0000000  1.6038667  3
    354    374    376    377     1  0.0000000  0.6508444  3
    353    351    354    355     1  0.0000000  0.6508444  3
    353    351    354    356     1  0.0000000  1.0460000  1
    353    351    354    356     1  0.0000000  0.0000000  3
    353    351    354    374     1  0.0000000  0.6508444  3
    352    351    354    355     1  0.0000000  0.6508444  3
    352    351    354    356     1  0.0000000  1.0460000  1
    352    351    354    356     1  0.0000000  0.0000000  3
    352    351    354    374     1  0.0000000  0.6508444  3
    351    354    374    375     1  0.0000000  0.6508444  3
    350    351    354    355     1  0.0000000  1.0460000  1
    350    351    354    355     1  0.0000000  0.0000000  3
    347    350    351    352     1  0.0000000  1.6038667  3
    347    350    351    353     1  0.0000000  1.6038667  3
    411    410    408    414     1  0.0000000  1.0460000  1
    411    410    408    414     1  0.0000000  0.0000000  3
    411    410    412    413     1  0.0000000  0.6973333  3
    409    408    410    411     1  0.0000000  0.6508444  3
    409    408    410    412     1  0.0000000  1.0460000  1
    409    408    410    412     1  0.0000000  0.0000000  3
    409    408    414    415     1  0.0000000  1.6038667  3
    408    410    412    413     1  0.0000000  1.0460000  1
    408    410    412    413     1  0.0000000  0.6694400  3
    405    403    402    406     1  180.0000771  10.0416000  2
    404    403    402    406     1  180.0000771  10.0416000  2
    401    400    402    403     1  180.0000771  6.2760000  2
    401    400    402    406     1  180.0000771  6.2760000  2
    400    402    403    404     1  180.0000771  10.0416000  2
    400    402    403    405     1  180.0000771  10.0416000  2
    399    398    400    401     1  180.0000771  5.6484000  2
    397    398    400    401     1  180.0000771  5.6484000  2
    395    394    393    407     1  180.0000771  7.1128000  2
    395    394    396    397     1  180.0000771  41.8400000  2
    393    391    410    411     1  0.0000000  0.6508444  3
    392    391    393    394     1  0.0000000  0.0000000  2
    392    391    393    407     1  0.0000000  0.0000000  2
    392    391    410    408     1  0.0000000  0.6508444  3
    392    391    410    411     1  0.0000000  0.6508444  3
    392    391    410    412     1  0.0000000  0.6508444  3
    391    393    394    395     1  180.0000771  7.1128000  2
    391    410    408    409     1  0.0000000  0.6508444  3
    391    410    412    413     1  0.0000000  1.0460000  1
    391    410    412    413     1  0.0000000  0.6694400  3
    390    388    408    409     1  0.0000000  1.0460000  1
    390    388    408    409     1  0.0000000  0.0000000  3
    390    391    410    411     1  0.0000000  1.0460000  1
    390    391    410    411     1  0.0000000  0.0000000  3
    389    388    390    391     1  0.0000000  1.6038667  3
    389    388    408    409     1  0.0000000  0.6508444  3
    389    388    408    410     1  0.0000000  0.6508444  3
    389    388    408    414     1  0.0000000  1.0460000  1
    389    388    408    414     1  0.0000000  0.0000000  3
    388    390    391    392     1  0.0000000  1.6038667  3
    388    408    410    411     1  0.0000000  0.6508444  3
    387    385    388    389     1  0.0000000  0.6508444  3
    387    385    388    390     1  0.0000000  1.0460000  1
    387    385    388    390     1  0.0000000  0.0000000  3
    387    385    388    408     1  0.0000000  0.6508444  3
    386    385    388    389     1  0.0000000  0.6508444  3
    386    385    388    390     1  0.0000000  1.0460000  1
    386    385    388    390     1  0.0000000  0.0000000  3
    386    385    388    408     1  0.0000000  0.6508444  3
    385    388    408    409     1  0.0000000  0.6508444  3
    384    385    388    389     1  0.0000000  1.0460000  1
    384    385    388    389     1  0.0000000  0.0000000  3
    381    384    385    386     1  0.0000000  1.6038667  3
    381    384    385    387     1  0.0000000  1.6038667  3
    441    440    438    444     1  0.0000000  1.0460000  1
    441    440    438    444     1  0.0000000  0.0000000  3
    441    440    442    443     1  0.0000000  0.6973333  3
    439    438    440    441     1  0.0000000  0.6508444  3
    439    438    440    442     1  0.0000000  1.0460000  1
    439    438    440    442     1  0.0000000  0.0000000  3
    439    438    444    445     1  0.0000000  1.6038667  3
    438    440    442    443     1  0.0000000  1.0460000  1
    438    440    442    443     1  0.0000000  0.6694400  3
    435    434    436    437     1  180.0000771  5.6484000  2
    433    432    434    435     1  180.0000771  5.6484000  2
    431    430    432    433     1  180.0000771  9.1002000  2
    431    430    432    434     1  180.0000771  9.1002000  2
    430    432    434    435     1  180.0000771  5.6484000  2
    429    428    427    436     1  180.0000771  7.7404000  2
    429    428    430    431     1  180.0000771  27.8236000  2
    429    428    430    432     1  180.0000771  27.8236000  2
    427    425    440    441     1  0.0000000  0.6508444  3
    427    428    430    431     1  180.0000771  27.8236000  2
    427    436    434    435     1  180.0000771  5.6484000  2
    426    425    427    428     1  0.0000000  0.0000000  2
    426    425    427    436     1  0.0000000  0.0000000  2
    426    425    440    438     1  0.0000000  0.6508444  3
    426    425    440    441     1  0.0000000  0.6508444  3
    426    425    440    442     1  0.0000000  0.6508444  3
    425    427    428    429     1  180.0000771  7.7404000  2
    425    440    438    439     1  0.0000000  0.6508444  3
    425    440    442    443     1  0.0000000  1.0460000  1
    425    440    442    443     1  0.0000000  0.6694400  3
    424    422    438    439     1  0.0000000  1.0460000  1
    424    422    438    439     1  0.0000000  0.0000000  3
    424    425    440    441     1  0.0000000  1.0460000  1
    424    425    440    441     1  0.0000000  0.0000000  3
    423    422    424    425     1  0.0000000  1.6038667  3
    423    422    438    439     1  0.0000000  0.6508444  3
    423    422    438    440     1  0.0000000  0.6508444  3
    423    422    438    444     1  0.0000000  1.0460000  1
    423    422    438    444     1  0.0000000  0.0000000  3
    422    424    425    426     1  0.0000000  1.6038667  3
    422    438    440    441     1  0.0000000  0.6508444  3
    421    419    422    423     1  0.0000000  0.6508444  3
    421    419    422    424     1  0.0000000  1.0460000  1
    421    419    422    424     1  0.0000000  0.0000000  3
    421    419    422    438     1  0.0000000  0.6508444  3
    420    419    422    423     1  0.0000000  0.6508444  3
    420    419    422    424     1  0.0000000  1.0460000  1
    420    419    422    424     1  0.0000000  0.0000000  3
    420    419    422    438     1  0.0000000  0.6508444  3
    419    422    438    439     1  0.0000000  0.6508444  3
    418    419    422    423     1  0.0000000  1.0460000  1
    418    419    422    423     1  0.0000000  0.0000000  3
    415    418    419    420     1  0.0000000  1.6038667  3
    415    418    419    421     1  0.0000000  1.6038667  3
    471    470    468    474     1  0.0000000  1.0460000  1
    471    470    468    474     1  0.0000000  0.0000000  3
    471    470    472    473     1  0.0000000  0.6973333  3
    469    468    470    471     1  0.0000000  0.6508444  3
    469    468    470    472     1  0.0000000  1.0460000  1
    469    468    470    472     1  0.0000000  0.0000000  3
    469    468    474    475     1  0.0000000  1.6038667  3
    468    470    472    473     1  0.0000000  1.0460000  1
    468    470    472    473     1  0.0000000  0.6694400  3
    465    464    466    467     1  180.0000771  5.6484000  2
    463    462    464    465     1  180.0000771  5.6484000  2
    461    460    462    463     1  180.0000771  9.1002000  2
    461    460    462    464     1  180.0000771  9.1002000  2
    460    462    464    465     1  180.0000771  5.6484000  2
    459    458    457    466     1  180.0000771  7.7404000  2
    459    458    460    461     1  180.0000771  27.8236000  2
    459    458    460    462     1  180.0000771  27.8236000  2
    457    455    470    471     1  0.0000000  0.6508444  3
    457    458    460    461     1  180.0000771  27.8236000  2
    457    466    464    465     1  180.0000771  5.6484000  2
    456    455    457    458     1  0.0000000  0.0000000  2
    456    455    457    466     1  0.0000000  0.0000000  2
    456    455    470    468     1  0.0000000  0.6508444  3
    456    455    470    471     1  0.0000000  0.6508444  3
    456    455    470    472     1  0.0000000  0.6508444  3
    455    457    458    459     1  180.0000771  7.7404000  2
    455    470    468    469     1  0.0000000  0.6508444  3
    455    470    472    473     1  0.0000000  1.0460000  1
    455    470    472    473     1  0.0000000  0.6694400  3
    454    452    468    469     1  0.0000000  1.0460000  1
    454    452    468    469     1  0.0000000  0.0000000  3
    454    455    470    471     1  0.0000000  1.0460000  1
    454    455    470    471     1  0.0000000  0.0000000  3
    453    452    454    455     1  0.0000000  1.6038667  3
    453    452    468    469     1  0.0000000  0.6508444  3
    453    452    468    470     1  0.0000000  0.6508444  3
    453    452    468    474     1  0.0000000  1.0460000  1
    453    452    468    474     1  0.0000000  0.0000000  3
    452    454    455    456     1  0.0000000  1.6038667  3
    452    468    470    471     1  0.0000000  0.6508444  3
    451    449    452    453     1  0.0000000  0.6508444  3
    451    449    452    454     1  0.0000000  1.0460000  1
    451    449    452    454     1  0.0000000  0.0000000  3
    451    449    452    468     1  0.0000000  0.6508444  3
    450    449    452    453     1  0.0000000  0.6508444  3
    450    449    452    454     1  0.0000000  1.0460000  1
    450    449    452    454     1  0.0000000  0.0000000  3
    450    449    452    468     1  0.0000000  0.6508444  3
    449    452    468    469     1  0.0000000  0.6508444  3
    448    449    452    453     1  0.0000000  1.0460000  1
    448    449    452    453     1  0.0000000  0.0000000  3
    445    448    449    450     1  0.0000000  1.6038667  3
    445    448    449    451     1  0.0000000  1.6038667  3
    501    500    498    504     1  0.0000000  1.0460000  1
    501    500    498    504     1  0.0000000  0.0000000  3
    501    500    502    503     1  0.0000000  0.6973333  3
    499    498    500    501     1  0.0000000  0.6508444  3
    499    498    500    502     1  0.0000000  1.0460000  1
    499    498    500    502     1  0.0000000  0.0000000  3
    499    498    504    505     1  0.0000000  1.6038667  3
    498    500    502    503     1  0.0000000  1.0460000  1
    498    500    502    503     1  0.0000000  0.6694400  3
    495    494    496    497     1  180.0000771  5.6484000  2
    493    492    494    495     1  180.0000771  5.6484000  2
    491    490    492    493     1  180.0000771  9.1002000  2
    491    490    492    494     1  180.0000771  9.1002000  2
    490    492    494    495     1  180.0000771  5.6484000  2
    489    488    487    496     1  180.0000771  7.7404000  2
    489    488    490    491     1  180.0000771  27.8236000  2
    489    488    490    492     1  180.0000771  27.8236000  2
    487    485    500    501     1  0.0000000  0.6508444  3
    487    488    490    491     1  180.0000771  27.8236000  2
    487    496    494    495     1  180.0000771  5.6484000  2
    486    485    487    488     1  0.0000000  0.0000000  2
    486    485    487    496     1  0.0000000  0.0000000  2
    486    485    500    498     1  0.0000000  0.6508444  3
    486    485    500    501     1  0.0000000  0.6508444  3
    486    485    500    502     1  0.0000000  0.6508444  3
    485    487    488    489     1  180.0000771  7.7404000  2
    485    500    498    499     1  0.0000000  0.6508444  3
    485    500    502    503     1  0.0000000  1.0460000  1
    485    500    502    503     1  0.0000000  0.6694400  3
    484    482    498    499     1  0.0000000  1.0460000  1
    484    482    498    499     1  0.0000000  0.0000000  3
    484    485    500    501     1  0.0000000  1.0460000  1
    484    485    500    501     1  0.0000000  0.0000000  3
    483    482    484    485     1  0.0000000  1.6038667  3
    483    482    498    499     1  0.0000000  0.6508444  3
    483    482    498    500     1  0.0000000  0.6508444  3
    483    482    498    504     1  0.0000000  1.0460000  1
    483    482    498    504     1  0.0000000  0.0000000  3
    482    484    485    486     1  0.0000000  1.6038667  3
    482    498    500    501     1  0.0000000  0.6508444  3
    481    479    482    483     1  0.0000000  0.6508444  3
    481    479    482    484     1  0.0000000  1.0460000  1
    481    479    482    484     1  0.0000000  0.0000000  3
    481    479    482    498     1  0.0000000  0.6508444  3
    480    479    482    483     1  0.0000000  0.6508444  3
    480    479    482    484     1  0.0000000  1.0460000  1
    480    479    482    484     1  0.0000000  0.0000000  3
    480    479    482    498     1  0.0000000  0.6508444  3
    479    482    498    499     1  0.0000000  0.6508444  3
    478    479    482    483     1  0.0000000  1.0460000  1
    478    479    482    483     1  0.0000000  0.0000000  3
    475    478    479    480     1  0.0000000  1.6038667  3
    475    478    479    481     1  0.0000000  1.6038667  3
    535    534    532    538     1  0.0000000  1.0460000  1
    535    534    532    538     1  0.0000000  0.0000000  3
    535    534    536    537     1  0.0000000  0.6973333  3
    533    532    534    535     1  0.0000000  0.6508444  3
    533    532    534    536     1  0.0000000  1.0460000  1
    533    532    534    536     1  0.0000000  0.0000000  3
    533    532    538    539     1  0.0000000  1.6038667  3
    532    534    536    537     1  0.0000000  1.0460000  1
    532    534    536    537     1  0.0000000  0.6694400  3
    529    527    526    530     1  180.0000771  10.0416000  2
    528    527    526    530     1  180.0000771  10.0416000  2
    525    524    526    527     1  180.0000771  6.2760000  2
    525    524    526    530     1  180.0000771  6.2760000  2
    524    526    527    528     1  180.0000771  10.0416000  2
    524    526    527    529     1  180.0000771  10.0416000  2
    523    522    524    525     1  180.0000771  5.6484000  2
    521    522    524    525     1  180.0000771  5.6484000  2
    519    518    517    531     1  180.0000771  7.1128000  2
    519    518    520    521     1  180.0000771  41.8400000  2
    517    515    534    535     1  0.0000000  0.6508444  3
    516    515    517    518     1  0.0000000  0.0000000  2
    516    515    517    531     1  0.0000000  0.0000000  2
    516    515    534    532     1  0.0000000  0.6508444  3
    516    515    534    535     1  0.0000000  0.6508444  3
    516    515    534    536     1  0.0000000  0.6508444  3
    515    517    518    519     1  180.0000771  7.1128000  2
    515    534    532    533     1  0.0000000  0.6508444  3
    515    534    536    537     1  0.0000000  1.0460000  1
    515    534    536    537     1  0.0000000  0.6694400  3
    514    512    532    533     1  0.0000000  1.0460000  1
    514    512    532    533     1  0.0000000  0.0000000  3
    514    515    534    535     1  0.0000000  1.0460000  1
    514    515    534    535     1  0.0000000  0.0000000  3
    513    512    514    515     1  0.0000000  1.6038667  3
    513    512    532    533     1  0.0000000  0.6508444  3
    513    512    532    534     1  0.0000000  0.6508444  3
    513    512    532    538     1  0.0000000  1.0460000  1
    513    512    532    538     1  0.0000000  0.0000000  3
    512    514    515    516     1  0.0000000  1.6038667  3
    512    532    534    535     1  0.0000000  0.6508444  3
    511    509    512    513     1  0.0000000  0.6508444  3
    511    509    512    514     1  0.0000000  1.0460000  1
    511    509    512    514     1  0.0000000  0.0000000  3
    511    509    512    532     1  0.0000000  0.6508444  3
    510    509    512    513     1  0.0000000  0.6508444  3
    510    509    512    514     1  0.0000000  1.0460000  1
    510    509    512    514     1  0.0000000  0.0000000  3
    510    509    512    532     1  0.0000000  0.6508444  3
    509    512    532    533     1  0.0000000  0.6508444  3
    508    509    512    513     1  0.0000000  1.0460000  1
    508    509    512    513     1  0.0000000  0.0000000  3
    505    508    509    510     1  0.0000000  1.6038667  3
    505    508    509    511     1  0.0000000  1.6038667  3
    566    565    563    569     1  0.0000000  1.0460000  1
    566    565    563    569     1  0.0000000  0.0000000  3
    566    565    567    568     1  0.0000000  0.6973333  3
    564    563    565    566     1  0.0000000  0.6508444  3
    564    563    565    567     1  0.0000000  1.0460000  1
    564    563    565    567     1  0.0000000  0.0000000  3
    564    563    569    570     1  0.0000000  1.6038667  3
    563    565    567    568     1  0.0000000  1.0460000  1
    563    565    567    568     1  0.0000000  0.6694400  3
    559    557    556    560     1  180.0000771  10.0416000  2
    558    557    556    560     1  180.0000771  10.0416000  2
    555    554    556    557     1  180.0000771  10.6692000  2
    555    554    556    560     1  180.0000771  10.6692000  2
    554    556    557    558     1  180.0000771  10.0416000  2
    554    556    557    559     1  180.0000771  10.0416000  2
    553    552    551    561     1  180.0000771  7.7404000  2
    553    552    554    555     1  180.0000771  27.8236000  2
    553    552    554    556     1  180.0000771  27.8236000  2
    551    549    565    566     1  0.0000000  0.6508444  3
    551    552    554    555     1  180.0000771  27.8236000  2
    550    549    551    552     1  0.0000000  0.0000000  2
    550    549    551    561     1  0.0000000  0.0000000  2
    550    549    565    563     1  0.0000000  0.6508444  3
    550    549    565    566     1  0.0000000  0.6508444  3
    550    549    565    567     1  0.0000000  0.6508444  3
    549    551    552    553     1  180.0000771  7.7404000  2
    549    565    563    564     1  0.0000000  0.6508444  3
    549    565    567    568     1  0.0000000  1.0460000  1
    549    565    567    568     1  0.0000000  0.6694400  3
    548    546    563    564     1  0.0000000  1.0460000  1
    548    546    563    564     1  0.0000000  0.0000000  3
    548    549    565    566     1  0.0000000  1.0460000  1
    548    549    565    566     1  0.0000000  0.0000000  3
    547    546    548    549     1  0.0000000  1.6038667  3
    547    546    563    564     1  0.0000000  0.6508444  3
    547    546    563    565     1  0.0000000  0.6508444  3
    547    546    563    569     1  0.0000000  1.0460000  1
    547    546    563    569     1  0.0000000  0.0000000  3
    546    548    549    550     1  0.0000000  1.6038667  3
    546    563    565    566     1  0.0000000  0.6508444  3
    545    543    546    547     1  0.0000000  0.6508444  3
    545    543    546    548     1  0.0000000  1.0460000  1
    545    543    546    548     1  0.0000000  0.0000000  3
    545    543    546    563     1  0.0000000  0.6508444  3
    544    543    546    547     1  0.0000000  0.6508444  3
    544    543    546    548     1  0.0000000  1.0460000  1
    544    543    546    548     1  0.0000000  0.0000000  3
    544    543    546    563     1  0.0000000  0.6508444  3
    543    546    563    564     1  0.0000000  0.6508444  3
    542    543    546    547     1  0.0000000  1.0460000  1
    542    543    546    547     1  0.0000000  0.0000000  3
    539    542    543    544     1  0.0000000  1.6038667  3
    539    542    543    545     1  0.0000000  1.6038667  3
    600    599    597    603     1  0.0000000  1.0460000  1
    600    599    597    603     1  0.0000000  0.0000000  3
    600    599    601    602     1  0.0000000  0.6973333  3
    598    597    599    600     1  0.0000000  0.6508444  3
    598    597    599    601     1  0.0000000  1.0460000  1
    598    597    599    601     1  0.0000000  0.0000000  3
    598    597    603    604     1  0.0000000  1.6038667  3
    597    599    601    602     1  0.0000000  1.0460000  1
    597    599    601    602     1  0.0000000  0.6694400  3
    594    592    591    595     1  180.0000771  10.0416000  2
    593    592    591    595     1  180.0000771  10.0416000  2
    590    589    591    592     1  180.0000771  6.2760000  2
    590    589    591    595     1  180.0000771  6.2760000  2
    589    591    592    593     1  180.0000771  10.0416000  2
    589    591    592    594     1  180.0000771  10.0416000  2
    588    587    589    590     1  180.0000771  5.6484000  2
    586    587    589    590     1  180.0000771  5.6484000  2
    584    583    582    596     1  180.0000771  7.1128000  2
    584    583    585    586     1  180.0000771  41.8400000  2
    582    580    599    600     1  0.0000000  0.6508444  3
    581    580    582    583     1  0.0000000  0.0000000  2
    581    580    582    596     1  0.0000000  0.0000000  2
    581    580    599    597     1  0.0000000  0.6508444  3
    581    580    599    600     1  0.0000000  0.6508444  3
    581    580    599    601     1  0.0000000  0.6508444  3
    580    582    583    584     1  180.0000771  7.1128000  2
    580    599    597    598     1  0.0000000  0.6508444  3
    580    599    601    602     1  0.0000000  1.0460000  1
    580    599    601    602     1  0.0000000  0.6694400  3
    579    577    597    598     1  0.0000000  1.0460000  1
    579    577    597    598     1  0.0000000  0.0000000  3
    579    580    599    600     1  0.0000000  1.0460000  1
    579    580    599    600     1  0.0000000  0.0000000  3
    578    577    579    580     1  0.0000000  1.6038667  3
    578    577    597    598     1  0.0000000  0.6508444  3
    578    577    597    599     1  0.0000000  0.6508444  3
    578    577    597    603     1  0.0000000  1.0460000  1
    578    577    597    603     1  0.0000000  0.0000000  3
    577    579    580    581     1  0.0000000  1.6038667  3
    577    597    599    600     1  0.0000000  0.6508444  3
    576    574    577    578     1  0.0000000  0.6508444  3
    576    574    577    579     1  0.0000000  1.0460000  1
    576    574    577    579     1  0.0000000  0.0000000  3
    576    574    577    597     1  0.0000000  0.6508444  3
    575    574    577    578     1  0.0000000  0.6508444  3
    575    574    577    579     1  0.0000000  1.0460000  1
    575    574    577    579     1  0.0000000  0.0000000  3
    575    574    577    597     1  0.0000000  0.6508444  3
    574    577    597    598     1  0.0000000  0.6508444  3
    573    574    577    578     1  0.0000000  1.0460000  1
    573    574    577    578     1  0.0000000  0.0000000  3
    570    573    574    575     1  0.0000000  1.6038667  3
    570    573    574    576     1  0.0000000  1.6038667  3
    634    633    631    637     1  0.0000000  1.0460000  1
    634    633    631    637     1  0.0000000  0.0000000  3
    634    633    635    636     1  0.0000000  0.6973333  3
    632    631    633    634     1  0.0000000  0.6508444  3
    632    631    633    635     1  0.0000000  1.0460000  1
    632    631    633    635     1  0.0000000  0.0000000  3
    632    631    637    638     1  0.0000000  1.6038667  3
    631    633    635    636     1  0.0000000  1.0460000  1
    631    633    635    636     1  0.0000000  0.6694400  3
    628    626    625    629     1  180.0000771  10.0416000  2
    627    626    625    629     1  180.0000771  10.0416000  2
    624    623    625    626     1  180.0000771  6.2760000  2
    624    623    625    629     1  180.0000771  6.2760000  2
    623    625    626    627     1  180.0000771  10.0416000  2
    623    625    626    628     1  180.0000771  10.0416000  2
    622    621    623    624     1  180.0000771  5.6484000  2
    620    621    623    624     1  180.0000771  5.6484000  2
    618    617    616    630     1  180.0000771  7.1128000  2
    618    617    619    620     1  180.0000771  41.8400000  2
    616    614    633    634     1  0.0000000  0.6508444  3
    615    614    616    617     1  0.0000000  0.0000000  2
    615    614    616    630     1  0.0000000  0.0000000  2
    615    614    633    631     1  0.0000000  0.6508444  3
    615    614    633    634     1  0.0000000  0.6508444  3
    615    614    633    635     1  0.0000000  0.6508444  3
    614    616    617    618     1  180.0000771  7.1128000  2
    614    633    631    632     1  0.0000000  0.6508444  3
    614    633    635    636     1  0.0000000  1.0460000  1
    614    633    635    636     1  0.0000000  0.6694400  3
    613    611    631    632     1  0.0000000  1.0460000  1
    613    611    631    632     1  0.0000000  0.0000000  3
    613    614    633    634     1  0.0000000  1.0460000  1
    613    614    633    634     1  0.0000000  0.0000000  3
    612    611    613    614     1  0.0000000  1.6038667  3
    612    611    631    632     1  0.0000000  0.6508444  3
    612    611    631    633     1  0.0000000  0.6508444  3
    612    611    631    637     1  0.0000000  1.0460000  1
    612    611    631    637     1  0.0000000  0.0000000  3
    611    613    614    615     1  0.0000000  1.6038667  3
    611    631    633    634     1  0.0000000  0.6508444  3
    610    608    611    612     1  0.0000000  0.6508444  3
    610    608    611    613     1  0.0000000  1.0460000  1
    610    608    611    613     1  0.0000000  0.0000000  3
    610    608    611    631     1  0.0000000  0.6508444  3
    609    608    611    612     1  0.0000000  0.6508444  3
    609    608    611    613     1  0.0000000  1.0460000  1
    609    608    611    613     1  0.0000000  0.0000000  3
    609    608    611    631     1  0.0000000  0.6508444  3
    608    611    631    632     1  0.0000000  0.6508444  3
    607    608    611    612     1  0.0000000  1.0460000  1
    607    608    611    612     1  0.0000000  0.0000000  3
    604    607    608    609     1  0.0000000  1.6038667  3
    604    607    608    610     1  0.0000000  1.6038667  3
    664    663    661    667     1  0.0000000  1.0460000  1
    664    663    661    667     1  0.0000000  0.0000000  3
    664    663    665    666     1  0.0000000  0.6973333  3
    662    661    663    664     1  0.0000000  0.6508444  3
    662    661    663    665     1  0.0000000  1.0460000  1
    662    661    663    665     1  0.0000000  0.0000000  3
    662    661    667    668     1  0.0000000  1.6038667  3
    661    663    665    666     1  0.0000000  1.0460000  1
    661    663    665    666     1  0.0000000  0.6694400  3
    658    657    659    660     1  180.0000771  5.6484000  2
    656    655    657    658     1  180.0000771  5.6484000  2
    654    653    655    656     1  180.0000771  9.1002000  2
    654    653    655    657     1  180.0000771  9.1002000  2
    653    655    657    658     1  180.0000771  5.6484000  2
    652    651    650    659     1  180.0000771  7.7404000  2
    652    651    653    654     1  180.0000771  27.8236000  2
    652    651    653    655     1  180.0000771  27.8236000  2
    650    648    663    664     1  0.0000000  0.6508444  3
    650    651    653    654     1  180.0000771  27.8236000  2
    650    659    657    658     1  180.0000771  5.6484000  2
    649    648    650    651     1  0.0000000  0.0000000  2
    649    648    650    659     1  0.0000000  0.0000000  2
    649    648    663    661     1  0.0000000  0.6508444  3
    649    648    663    664     1  0.0000000  0.6508444  3
    649    648    663    665     1  0.0000000  0.6508444  3
    648    650    651    652     1  180.0000771  7.7404000  2
    648    663    661    662     1  0.0000000  0.6508444  3
    648    663    665    666     1  0.0000000  1.0460000  1
    648    663    665    666     1  0.0000000  0.6694400  3
    647    645    661    662     1  0.0000000  1.0460000  1
    647    645    661    662     1  0.0000000  0.0000000  3
    647    648    663    664     1  0.0000000  1.0460000  1
    647    648    663    664     1  0.0000000  0.0000000  3
    646    645    647    648     1  0.0000000  1.6038667  3
    646    645    661    662     1  0.0000000  0.6508444  3
    646    645    661    663     1  0.0000000  0.6508444  3
    646    645    661    667     1  0.0000000  1.0460000  1
    646    645    661    667     1  0.0000000  0.0000000  3
    645    647    648    649     1  0.0000000  1.6038667  3
    645    661    663    664     1  0.0000000  0.6508444  3
    644    642    645    646     1  0.0000000  0.6508444  3
    644    642    645    647     1  0.0000000  1.0460000  1
    644    642    645    647     1  0.0000000  0.0000000  3
    644    642    645    661     1  0.0000000  0.6508444  3
    643    642    645    646     1  0.0000000  0.6508444  3
    643    642    645    647     1  0.0000000  1.0460000  1
    643    642    645    647     1  0.0000000  0.0000000  3
    643    642    645    661     1  0.0000000  0.6508444  3
    642    645    661    662     1  0.0000000  0.6508444  3
    641    642    645    646     1  0.0000000  1.0460000  1
    641    642    645    646     1  0.0000000  0.0000000  3
    638    641    642    643     1  0.0000000  1.6038667  3
    638    641    642    644     1  0.0000000  1.6038667  3
    698    697    695    701     1  0.0000000  1.0460000  1
    698    697    695    701     1  0.0000000  0.0000000  3
    698    697    699    700     1  0.0000000  0.6973333  3
    696    695    697    698     1  0.0000000  0.6508444  3
    696    695    697    699     1  0.0000000  1.0460000  1
    696    695    697    699     1  0.0000000  0.0000000  3
    696    695    701    702     1  0.0000000  1.6038667  3
    695    697    699    700     1  0.0000000  1.0460000  1
    695    697    699    700     1  0.0000000  0.6694400  3
    692    690    689    693     1  180.0000771  10.0416000  2
    691    690    689    693     1  180.0000771  10.0416000  2
    688    687    689    690     1  180.0000771  6.2760000  2
    688    687    689    693     1  180.0000771  6.2760000  2
    687    689    690    691     1  180.0000771  10.0416000  2
    687    689    690    692     1  180.0000771  10.0416000  2
    686    685    687    688     1  180.0000771  5.6484000  2
    684    685    687    688     1  180.0000771  5.6484000  2
    682    681    680    694     1  180.0000771  7.1128000  2
    682    681    683    684     1  180.0000771  41.8400000  2
    680    678    697    698     1  0.0000000  0.6508444  3
    679    678    680    681     1  0.0000000  0.0000000  2
    679    678    680    694     1  0.0000000  0.0000000  2
    679    678    697    695     1  0.0000000  0.6508444  3
    679    678    697    698     1  0.0000000  0.6508444  3
    679    678    697    699     1  0.0000000  0.6508444  3
    678    680    681    682     1  180.0000771  7.1128000  2
    678    697    695    696     1  0.0000000  0.6508444  3
    678    697    699    700     1  0.0000000  1.0460000  1
    678    697    699    700     1  0.0000000  0.6694400  3
    677    675    695    696     1  0.0000000  1.0460000  1
    677    675    695    696     1  0.0000000  0.0000000  3
    677    678    697    698     1  0.0000000  1.0460000  1
    677    678    697    698     1  0.0000000  0.0000000  3
    676    675    677    678     1  0.0000000  1.6038667  3
    676    675    695    696     1  0.0000000  0.6508444  3
    676    675    695    697     1  0.0000000  0.6508444  3
    676    675    695    701     1  0.0000000  1.0460000  1
    676    675    695    701     1  0.0000000  0.0000000  3
    675    677    678    679     1  0.0000000  1.6038667  3
    675    695    697    698     1  0.0000000  0.6508444  3
    674    672    675    676     1  0.0000000  0.6508444  3
    674    672    675    677     1  0.0000000  1.0460000  1
    674    672    675    677     1  0.0000000  0.0000000  3
    674    672    675    695     1  0.0000000  0.6508444  3
    673    672    675    676     1  0.0000000  0.6508444  3
    673    672    675    677     1  0.0000000  1.0460000  1
    673    672    675    677     1  0.0000000  0.0000000  3
    673    672    675    695     1  0.0000000  0.6508444  3
    672    675    695    696     1  0.0000000  0.6508444  3
    671    672    675    676     1  0.0000000  1.0460000  1
    671    672    675    676     1  0.0000000  0.0000000  3
    668    671    672    673     1  0.0000000  1.6038667  3
    668    671    672    674     1  0.0000000  1.6038667  3
    728    727    725    731     1  0.0000000  1.0460000  1
    728    727    725    731     1  0.0000000  0.0000000  3
    728    727    729    730     1  0.0000000  0.6973333  3
    726    725    727    728     1  0.0000000  0.6508444  3
    726    725    727    729     1  0.0000000  1.0460000  1
    726    725    727    729     1  0.0000000  0.0000000  3
    726    725    731    732     1  0.0000000  1.6038667  3
    725    727    729    730     1  0.0000000  1.0460000  1
    725    727    729    730     1  0.0000000  0.6694400  3
    722    721    723    724     1  180.0000771  5.6484000  2
    720    719    721    722     1  180.0000771  5.6484000  2
    718    717    719    720     1  180.0000771  9.1002000  2
    718    717    719    721     1  180.0000771  9.1002000  2
    717    719    721    722     1  180.0000771  5.6484000  2
    716    715    714    723     1  180.0000771  7.7404000  2
    716    715    717    718     1  180.0000771  27.8236000  2
    716    715    717    719     1  180.0000771  27.8236000  2
    714    712    727    728     1  0.0000000  0.6508444  3
    714    715    717    718     1  180.0000771  27.8236000  2
    714    723    721    722     1  180.0000771  5.6484000  2
    713    712    714    715     1  0.0000000  0.0000000  2
    713    712    714    723     1  0.0000000  0.0000000  2
    713    712    727    725     1  0.0000000  0.6508444  3
    713    712    727    728     1  0.0000000  0.6508444  3
    713    712    727    729     1  0.0000000  0.6508444  3
    712    714    715    716     1  180.0000771  7.7404000  2
    712    727    725    726     1  0.0000000  0.6508444  3
    712    727    729    730     1  0.0000000  1.0460000  1
    712    727    729    730     1  0.0000000  0.6694400  3
    711    709    725    726     1  0.0000000  1.0460000  1
    711    709    725    726     1  0.0000000  0.0000000  3
    711    712    727    728     1  0.0000000  1.0460000  1
    711    712    727    728     1  0.0000000  0.0000000  3
    710    709    711    712     1  0.0000000  1.6038667  3
    710    709    725    726     1  0.0000000  0.6508444  3
    710    709    725    727     1  0.0000000  0.6508444  3
    710    709    725    731     1  0.0000000  1.0460000  1
    710    709    725    731     1  0.0000000  0.0000000  3
    709    711    712    713     1  0.0000000  1.6038667  3
    709    725    727    728     1  0.0000000  0.6508444  3
    708    706    709    710     1  0.0000000  0.6508444  3
    708    706    709    711     1  0.0000000  1.0460000  1
    708    706    709    711     1  0.0000000  0.0000000  3
    708    706    709    725     1  0.0000000  0.6508444  3
    707    706    709    710     1  0.0000000  0.6508444  3
    707    706    709    711     1  0.0000000  1.0460000  1
    707    706    709    711     1  0.0000000  0.0000000  3
    707    706    709    725     1  0.0000000  0.6508444  3
    706    709    725    726     1  0.0000000  0.6508444  3
    705    706    709    710     1  0.0000000  1.0460000  1
    705    706    709    710     1  0.0000000  0.0000000  3
    702    705    706    707     1  0.0000000  1.6038667  3
    702    705    706    708     1  0.0000000  1.6038667  3
    761    760    758    764     1  0.0000000  1.0460000  1
    761    760    758    764     1  0.0000000  0.0000000  3
    761    760    762    763     1  0.0000000  0.6973333  3
    759    758    760    761     1  0.0000000  0.6508444  3
    759    758    760    762     1  0.0000000  1.0460000  1
    759    758    760    762     1  0.0000000  0.0000000  3
    759    758    764    765     1  0.0000000  1.6038667  3
    758    760    762    763     1  0.0000000  1.0460000  1
    758    760    762    763     1  0.0000000  0.6694400  3
    755    754    756    757     1  180.0000771  28.4512000  2
    752    750    749    753     1  180.0000771  10.0416000  2
    751    750    749    753     1  180.0000771  10.0416000  2
    749    753    754    755     1  180.0000771  28.4512000  2
    748    749    750    751     1  180.0000771  10.0416000  2
    748    749    750    752     1  180.0000771  10.0416000  2
    746    745    744    757     1  180.0000771  7.1128000  2
    746    745    747    748     1  180.0000771  41.8400000  2
    744    742    760    761     1  0.0000000  0.6508444  3
    743    742    744    745     1  0.0000000  0.0000000  2
    743    742    744    757     1  0.0000000  0.0000000  2
    743    742    760    758     1  0.0000000  0.6508444  3
    743    742    760    761     1  0.0000000  0.6508444  3
    743    742    760    762     1  0.0000000  0.6508444  3
    742    744    745    746     1  180.0000771  7.1128000  2
    742    760    758    759     1  0.0000000  0.6508444  3
    742    760    762    763     1  0.0000000  1.0460000  1
    742    760    762    763     1  0.0000000  0.6694400  3
    741    739    758    759     1  0.0000000  1.0460000  1
    741    739    758    759     1  0.0000000  0.0000000  3
    741    742    760    761     1  0.0000000  1.0460000  1
    741    742    760    761     1  0.0000000  0.0000000  3
    740    739    741    742     1  0.0000000  1.6038667  3
    740    739    758    759     1  0.0000000  0.6508444  3
    740    739    758    760     1  0.0000000  0.6508444  3
    740    739    758    764     1  0.0000000  1.0460000  1
    740    739    758    764     1  0.0000000  0.0000000  3
    739    741    742    743     1  0.0000000  1.6038667  3
    739    758    760    761     1  0.0000000  0.6508444  3
    738    736    739    740     1  0.0000000  0.6508444  3
    738    736    739    741     1  0.0000000  1.0460000  1
    738    736    739    741     1  0.0000000  0.0000000  3
    738    736    739    758     1  0.0000000  0.6508444  3
    737    736    739    740     1  0.0000000  0.6508444  3
    737    736    739    741     1  0.0000000  1.0460000  1
    737    736    739    741     1  0.0000000  0.0000000  3
    737    736    739    758     1  0.0000000  0.6508444  3
    736    739    758    759     1  0.0000000  0.6508444  3
    735    736    739    740     1  0.0000000  1.0460000  1
    735    736    739    740     1  0.0000000  0.0000000  3
    732    735    736    737     1  0.0000000  1.6038667  3
    732    735    736    738     1  0.0000000  1.6038667  3
    794    793    791    797     1  0.0000000  1.0460000  1
    794    793    791    797     1  0.0000000  0.0000000  3
    794    793    795    796     1  0.0000000  0.6973333  3
    792    791    793    794     1  0.0000000  0.6508444  3
    792    791    793    795     1  0.0000000  1.0460000  1
    792    791    793    795     1  0.0000000  0.0000000  3
    792    791    797    798     1  0.0000000  1.6038667  3
    791    793    795    796     1  0.0000000  1.0460000  1
    791    793    795    796     1  0.0000000  0.6694400  3
    788    787    789    790     1  180.0000771  28.4512000  2
    785    783    782    786     1  180.0000771  10.0416000  2
    784    783    782    786     1  180.0000771  10.0416000  2
    782    786    787    788     1  180.0000771  28.4512000  2
    781    782    783    784     1  180.0000771  10.0416000  2
    781    782    783    785     1  180.0000771  10.0416000  2
    779    778    777    790     1  180.0000771  7.1128000  2
    779    778    780    781     1  180.0000771  41.8400000  2
    777    775    793    794     1  0.0000000  0.6508444  3
    776    775    777    778     1  0.0000000  0.0000000  2
    776    775    777    790     1  0.0000000  0.0000000  2
    776    775    793    791     1  0.0000000  0.6508444  3
    776    775    793    794     1  0.0000000  0.6508444  3
    776    775    793    795     1  0.0000000  0.6508444  3
    775    777    778    779     1  180.0000771  7.1128000  2
    775    793    791    792     1  0.0000000  0.6508444  3
    775    793    795    796     1  0.0000000  1.0460000  1
    775    793    795    796     1  0.0000000  0.6694400  3
    774    772    791    792     1  0.0000000  1.0460000  1
    774    772    791    792     1  0.0000000  0.0000000  3
    774    775    793    794     1  0.0000000  1.0460000  1
    774    775    793    794     1  0.0000000  0.0000000  3
    773    772    774    775     1  0.0000000  1.6038667  3
    773    772    791    792     1  0.0000000  0.6508444  3
    773    772    791    793     1  0.0000000  0.6508444  3
    773    772    791    797     1  0.0000000  1.0460000  1
    773    772    791    797     1  0.0000000  0.0000000  3
    772    774    775    776     1  0.0000000  1.6038667  3
    772    791    793    794     1  0.0000000  0.6508444  3
    771    769    772    773     1  0.0000000  0.6508444  3
    771    769    772    774     1  0.0000000  1.0460000  1
    771    769    772    774     1  0.0000000  0.0000000  3
    771    769    772    791     1  0.0000000  0.6508444  3
    770    769    772    773     1  0.0000000  0.6508444  3
    770    769    772    774     1  0.0000000  1.0460000  1
    770    769    772    774     1  0.0000000  0.0000000  3
    770    769    772    791     1  0.0000000  0.6508444  3
    769    772    791    792     1  0.0000000  0.6508444  3
    768    769    772    773     1  0.0000000  1.0460000  1
    768    769    772    773     1  0.0000000  0.0000000  3
    765    768    769    770     1  0.0000000  1.6038667  3
    765    768    769    771     1  0.0000000  1.6038667  3
    828    827    825    831     1  0.0000000  1.0460000  1
    828    827    825    831     1  0.0000000  0.0000000  3
    828    827    829    830     1  0.0000000  0.6973333  3
    826    825    827    828     1  0.0000000  0.6508444  3
    826    825    827    829     1  0.0000000  1.0460000  1
    826    825    827    829     1  0.0000000  0.0000000  3
    826    825    831    832     1  0.0000000  1.6038667  3
    825    827    829    830     1  0.0000000  1.0460000  1
    825    827    829    830     1  0.0000000  0.6694400  3
    822    820    819    823     1  180.0000771  10.0416000  2
    821    820    819    823     1  180.0000771  10.0416000  2
    818    817    819    820     1  180.0000771  6.2760000  2
    818    817    819    823     1  180.0000771  6.2760000  2
    817    819    820    821     1  180.0000771  10.0416000  2
    817    819    820    822     1  180.0000771  10.0416000  2
    816    815    817    818     1  180.0000771  5.6484000  2
    814    815    817    818     1  180.0000771  5.6484000  2
    812    811    810    824     1  180.0000771  7.1128000  2
    812    811    813    814     1  180.0000771  41.8400000  2
    810    808    827    828     1  0.0000000  0.6508444  3
    809    808    810    811     1  0.0000000  0.0000000  2
    809    808    810    824     1  0.0000000  0.0000000  2
    809    808    827    825     1  0.0000000  0.6508444  3
    809    808    827    828     1  0.0000000  0.6508444  3
    809    808    827    829     1  0.0000000  0.6508444  3
    808    810    811    812     1  180.0000771  7.1128000  2
    808    827    825    826     1  0.0000000  0.6508444  3
    808    827    829    830     1  0.0000000  1.0460000  1
    808    827    829    830     1  0.0000000  0.6694400  3
    807    805    825    826     1  0.0000000  1.0460000  1
    807    805    825    826     1  0.0000000  0.0000000  3
    807    808    827    828     1  0.0000000  1.0460000  1
    807    808    827    828     1  0.0000000  0.0000000  3
    806    805    807    808     1  0.0000000  1.6038667  3
    806    805    825    826     1  0.0000000  0.6508444  3
    806    805    825    827     1  0.0000000  0.6508444  3
    806    805    825    831     1  0.0000000  1.0460000  1
    806    805    825    831     1  0.0000000  0.0000000  3
    805    807    808    809     1  0.0000000  1.6038667  3
    805    825    827    828     1  0.0000000  0.6508444  3
    804    802    805    806     1  0.0000000  0.6508444  3
    804    802    805    807     1  0.0000000  1.0460000  1
    804    802    805    807     1  0.0000000  0.0000000  3
    804    802    805    825     1  0.0000000  0.6508444  3
    803    802    805    806     1  0.0000000  0.6508444  3
    803    802    805    807     1  0.0000000  1.0460000  1
    803    802    805    807     1  0.0000000  0.0000000  3
    803    802    805    825     1  0.0000000  0.6508444  3
    802    805    825    826     1  0.0000000  0.6508444  3
    801    802    805    806     1  0.0000000  1.0460000  1
    801    802    805    806     1  0.0000000  0.0000000  3
    798    801    802    803     1  0.0000000  1.6038667  3
    798    801    802    804     1  0.0000000  1.6038667  3
    858    857    855    861     1  0.0000000  1.0460000  1
    858    857    855    861     1  0.0000000  0.0000000  3
    858    857    859    860     1  0.0000000  0.6973333  3
    856    855    857    858     1  0.0000000  0.6508444  3
    856    855    857    859     1  0.0000000  1.0460000  1
    856    855    857    859     1  0.0000000  0.0000000  3
    856    855    861    862     1  0.0000000  1.6038667  3
    855    857    859    860     1  0.0000000  1.0460000  1
    855    857    859    860     1  0.0000000  0.6694400  3
    852    851    853    854     1  180.0000771  5.6484000  2
    850    849    851    852     1  180.0000771  5.6484000  2
    848    847    849    850     1  180.0000771  9.1002000  2
    848    847    849    851     1  180.0000771  9.1002000  2
    847    849    851    852     1  180.0000771  5.6484000  2
    846    845    844    853     1  180.0000771  7.7404000  2
    846    845    847    848     1  180.0000771  27.8236000  2
    846    845    847    849     1  180.0000771  27.8236000  2
    844    842    857    858     1  0.0000000  0.6508444  3
    844    845    847    848     1  180.0000771  27.8236000  2
    844    853    851    852     1  180.0000771  5.6484000  2
    843    842    844    845     1  0.0000000  0.0000000  2
    843    842    844    853     1  0.0000000  0.0000000  2
    843    842    857    855     1  0.0000000  0.6508444  3
    843    842    857    858     1  0.0000000  0.6508444  3
    843    842    857    859     1  0.0000000  0.6508444  3
    842    844    845    846     1  180.0000771  7.7404000  2
    842    857    855    856     1  0.0000000  0.6508444  3
    842    857    859    860     1  0.0000000  1.0460000  1
    842    857    859    860     1  0.0000000  0.6694400  3
    841    839    855    856     1  0.0000000  1.0460000  1
    841    839    855    856     1  0.0000000  0.0000000  3
    841    842    857    858     1  0.0000000  1.0460000  1
    841    842    857    858     1  0.0000000  0.0000000  3
    840    839    841    842     1  0.0000000  1.6038667  3
    840    839    855    856     1  0.0000000  0.6508444  3
    840    839    855    857     1  0.0000000  0.6508444  3
    840    839    855    861     1  0.0000000  1.0460000  1
    840    839    855    861     1  0.0000000  0.0000000  3
    839    841    842    843     1  0.0000000  1.6038667  3
    839    855    857    858     1  0.0000000  0.6508444  3
    838    836    839    840     1  0.0000000  0.6508444  3
    838    836    839    841     1  0.0000000  1.0460000  1
    838    836    839    841     1  0.0000000  0.0000000  3
    838    836    839    855     1  0.0000000  0.6508444  3
    837    836    839    840     1  0.0000000  0.6508444  3
    837    836    839    841     1  0.0000000  1.0460000  1
    837    836    839    841     1  0.0000000  0.0000000  3
    837    836    839    855     1  0.0000000  0.6508444  3
    836    839    855    856     1  0.0000000  0.6508444  3
    835    836    839    840     1  0.0000000  1.0460000  1
    835    836    839    840     1  0.0000000  0.0000000  3
    832    835    836    837     1  0.0000000  1.6038667  3
    832    835    836    838     1  0.0000000  1.6038667  3
    892    891    889    895     1  0.0000000  1.0460000  1
    892    891    889    895     1  0.0000000  0.0000000  3
    892    891    893    894     1  0.0000000  0.6973333  3
    890    889    891    892     1  0.0000000  0.6508444  3
    890    889    891    893     1  0.0000000  1.0460000  1
    890    889    891    893     1  0.0000000  0.0000000  3
    890    889    895    896     1  0.0000000  1.6038667  3
    889    891    893    894     1  0.0000000  1.0460000  1
    889    891    893    894     1  0.0000000  0.6694400  3
    886    884    883    887     1  180.0000771  10.0416000  2
    885    884    883    887     1  180.0000771  10.0416000  2
    882    881    883    884     1  180.0000771  6.2760000  2
    882    881    883    887     1  180.0000771  6.2760000  2
    881    883    884    885     1  180.0000771  10.0416000  2
    881    883    884    886     1  180.0000771  10.0416000  2
    880    879    881    882     1  180.0000771  5.6484000  2
    878    879    881    882     1  180.0000771  5.6484000  2
    876    875    874    888     1  180.0000771  7.1128000  2
    876    875    877    878     1  180.0000771  41.8400000  2
    874    872    891    892     1  0.0000000  0.6508444  3
    873    872    874    875     1  0.0000000  0.0000000  2
    873    872    874    888     1  0.0000000  0.0000000  2
    873    872    891    889     1  0.0000000  0.6508444  3
    873    872    891    892     1  0.0000000  0.6508444  3
    873    872    891    893     1  0.0000000  0.6508444  3
    872    874    875    876     1  180.0000771  7.1128000  2
    872    891    889    890     1  0.0000000  0.6508444  3
    872    891    893    894     1  0.0000000  1.0460000  1
    872    891    893    894     1  0.0000000  0.6694400  3
    871    869    889    890     1  0.0000000  1.0460000  1
    871    869    889    890     1  0.0000000  0.0000000  3
    871    872    891    892     1  0.0000000  1.0460000  1
    871    872    891    892     1  0.0000000  0.0000000  3
    870    869    871    872     1  0.0000000  1.6038667  3
    870    869    889    890     1  0.0000000  0.6508444  3
    870    869    889    891     1  0.0000000  0.6508444  3
    870    869    889    895     1  0.0000000  1.0460000  1
    870    869    889    895     1  0.0000000  0.0000000  3
    869    871    872    873     1  0.0000000  1.6038667  3
    869    889    891    892     1  0.0000000  0.6508444  3
    868    866    869    870     1  0.0000000  0.6508444  3
    868    866    869    871     1  0.0000000  1.0460000  1
    868    866    869    871     1  0.0000000  0.0000000  3
    868    866    869    889     1  0.0000000  0.6508444  3
    867    866    869    870     1  0.0000000  0.6508444  3
    867    866    869    871     1  0.0000000  1.0460000  1
    867    866    869    871     1  0.0000000  0.0000000  3
    867    866    869    889     1  0.0000000  0.6508444  3
    866    869    889    890     1  0.0000000  0.6508444  3
    865    866    869    870     1  0.0000000  1.0460000  1
    865    866    869    870     1  0.0000000  0.0000000  3
    862    865    866    867     1  0.0000000  1.6038667  3
    862    865    866    868     1  0.0000000  1.6038667  3
    923    922    920    926     1  0.0000000  1.0460000  1
    923    922    920    926     1  0.0000000  0.0000000  3
    923    922    924    925     1  0.0000000  0.6973333  3
    921    920    922    923     1  0.0000000  0.6508444  3
    921    920    922    924     1  0.0000000  1.0460000  1
    921    920    922    924     1  0.0000000  0.0000000  3
    921    920    926    927     1  0.0000000  1.6038667  3
    920    922    924    925     1  0.0000000  1.0460000  1
    920    922    924    925     1  0.0000000  0.6694400  3
    916    914    913    917     1  180.0000771  10.0416000  2
    915    914    913    917     1  180.0000771  10.0416000  2
    912    911    913    914     1  180.0000771  10.6692000  2
    912    911    913    917     1  180.0000771  10.6692000  2
    911    913    914    915     1  180.0000771  10.0416000  2
    911    913    914    916     1  180.0000771  10.0416000  2
    910    909    908    918     1  180.0000771  7.7404000  2
    910    909    911    912     1  180.0000771  27.8236000  2
    910    909    911    913     1  180.0000771  27.8236000  2
    908    906    922    923     1  0.0000000  0.6508444  3
    908    909    911    912     1  180.0000771  27.8236000  2
    907    906    908    909     1  0.0000000  0.0000000  2
    907    906    908    918     1  0.0000000  0.0000000  2
    907    906    922    920     1  0.0000000  0.6508444  3
    907    906    922    923     1  0.0000000  0.6508444  3
    907    906    922    924     1  0.0000000  0.6508444  3
    906    908    909    910     1  180.0000771  7.7404000  2
    906    922    920    921     1  0.0000000  0.6508444  3
    906    922    924    925     1  0.0000000  1.0460000  1
    906    922    924    925     1  0.0000000  0.6694400  3
    905    903    920    921     1  0.0000000  1.0460000  1
    905    903    920    921     1  0.0000000  0.0000000  3
    905    906    922    923     1  0.0000000  1.0460000  1
    905    906    922    923     1  0.0000000  0.0000000  3
    904    903    905    906     1  0.0000000  1.6038667  3
    904    903    920    921     1  0.0000000  0.6508444  3
    904    903    920    922     1  0.0000000  0.6508444  3
    904    903    920    926     1  0.0000000  1.0460000  1
    904    903    920    926     1  0.0000000  0.0000000  3
    903    905    906    907     1  0.0000000  1.6038667  3
    903    920    922    923     1  0.0000000  0.6508444  3
    902    900    903    904     1  0.0000000  0.6508444  3
    902    900    903    905     1  0.0000000  1.0460000  1
    902    900    903    905     1  0.0000000  0.0000000  3
    902    900    903    920     1  0.0000000  0.6508444  3
    901    900    903    904     1  0.0000000  0.6508444  3
    901    900    903    905     1  0.0000000  1.0460000  1
    901    900    903    905     1  0.0000000  0.0000000  3
    901    900    903    920     1  0.0000000  0.6508444  3
    900    903    920    921     1  0.0000000  0.6508444  3
    899    900    903    904     1  0.0000000  1.0460000  1
    899    900    903    904     1  0.0000000  0.0000000  3
    896    899    900    901     1  0.0000000  1.6038667  3
    896    899    900    902     1  0.0000000  1.6038667  3
    956    955    953    959     1  0.0000000  1.0460000  1
    956    955    953    959     1  0.0000000  0.0000000  3
    956    955    957    958     1  0.0000000  0.6973333  3
    954    953    955    956     1  0.0000000  0.6508444  3
    954    953    955    957     1  0.0000000  1.0460000  1
    954    953    955    957     1  0.0000000  0.0000000  3
    954    953    959    960     1  0.0000000  1.6038667  3
    953    955    957    958     1  0.0000000  1.0460000  1
    953    955    957    958     1  0.0000000  0.6694400  3
    950    949    951    952     1  180.0000771  28.4512000  2
    947    945    944    948     1  180.0000771  10.0416000  2
    946    945    944    948     1  180.0000771  10.0416000  2
    944    948    949    950     1  180.0000771  28.4512000  2
    943    944    945    946     1  180.0000771  10.0416000  2
    943    944    945    947     1  180.0000771  10.0416000  2
    941    940    939    952     1  180.0000771  7.1128000  2
    941    940    942    943     1  180.0000771  41.8400000  2
    939    937    955    956     1  0.0000000  0.6508444  3
    938    937    939    940     1  0.0000000  0.0000000  2
    938    937    939    952     1  0.0000000  0.0000000  2
    938    937    955    953     1  0.0000000  0.6508444  3
    938    937    955    956     1  0.0000000  0.6508444  3
    938    937    955    957     1  0.0000000  0.6508444  3
    937    939    940    941     1  180.0000771  7.1128000  2
    937    955    953    954     1  0.0000000  0.6508444  3
    937    955    957    958     1  0.0000000  1.0460000  1
    937    955    957    958     1  0.0000000  0.6694400  3
    936    934    953    954     1  0.0000000  1.0460000  1
    936    934    953    954     1  0.0000000  0.0000000  3
    936    937    955    956     1  0.0000000  1.0460000  1
    936    937    955    956     1  0.0000000  0.0000000  3
    935    934    936    937     1  0.0000000  1.6038667  3
    935    934    953    954     1  0.0000000  0.6508444  3
    935    934    953    955     1  0.0000000  0.6508444  3
    935    934    953    959     1  0.0000000  1.0460000  1
    935    934    953    959     1  0.0000000  0.0000000  3
    934    936    937    938     1  0.0000000  1.6038667  3
    934    953    955    956     1  0.0000000  0.6508444  3
    933    931    934    935     1  0.0000000  0.6508444  3
    933    931    934    936     1  0.0000000  1.0460000  1
    933    931    934    936     1  0.0000000  0.0000000  3
    933    931    934    953     1  0.0000000  0.6508444  3
    932    931    934    935     1  0.0000000  0.6508444  3
    932    931    934    936     1  0.0000000  1.0460000  1
    932    931    934    936     1  0.0000000  0.0000000  3
    932    931    934    953     1  0.0000000  0.6508444  3
    931    934    953    954     1  0.0000000  0.6508444  3
    930    931    934    935     1  0.0000000  1.0460000  1
    930    931    934    935     1  0.0000000  0.0000000  3
    927    930    931    932     1  0.0000000  1.6038667  3
    927    930    931    933     1  0.0000000  1.6038667  3
    990    989    987    993     1  0.0000000  1.0460000  1
    990    989    987    993     1  0.0000000  0.0000000  3
    990    989    991    992     1  0.0000000  0.6973333  3
    988    987    989    990     1  0.0000000  0.6508444  3
    988    987    989    991     1  0.0000000  1.0460000  1
    988    987    989    991     1  0.0000000  0.0000000  3
    988    987    993    994     1  0.0000000  1.6038667  3
    987    989    991    992     1  0.0000000  1.0460000  1
    987    989    991    992     1  0.0000000  0.6694400  3
    984    982    981    985     1  180.0000771  10.0416000  2
    983    982    981    985     1  180.0000771  10.0416000  2
    980    979    981    982     1  180.0000771  6.2760000  2
    980    979    981    985     1  180.0000771  6.2760000  2
    979    981    982    983     1  180.0000771  10.0416000  2
    979    981    982    984     1  180.0000771  10.0416000  2
    978    977    979    980     1  180.0000771  5.6484000  2
    976    977    979    980     1  180.0000771  5.6484000  2
    974    973    972    986     1  180.0000771  7.1128000  2
    974    973    975    976     1  180.0000771  41.8400000  2
    972    970    989    990     1  0.0000000  0.6508444  3
    971    970    972    973     1  0.0000000  0.0000000  2
    971    970    972    986     1  0.0000000  0.0000000  2
    971    970    989    987     1  0.0000000  0.6508444  3
    971    970    989    990     1  0.0000000  0.6508444  3
    971    970    989    991     1  0.0000000  0.6508444  3
    970    972    973    974     1  180.0000771  7.1128000  2
    970    989    987    988     1  0.0000000  0.6508444  3
    970    989    991    992     1  0.0000000  1.0460000  1
    970    989    991    992     1  0.0000000  0.6694400  3
    969    967    987    988     1  0.0000000  1.0460000  1
    969    967    987    988     1  0.0000000  0.0000000  3
    969    970    989    990     1  0.0000000  1.0460000  1
    969    970    989    990     1  0.0000000  0.0000000  3
    968    967    969    970     1  0.0000000  1.6038667  3
    968    967    987    988     1  0.0000000  0.6508444  3
    968    967    987    989     1  0.0000000  0.6508444  3
    968    967    987    993     1  0.0000000  1.0460000  1
    968    967    987    993     1  0.0000000  0.0000000  3
    967    969    970    971     1  0.0000000  1.6038667  3
    967    987    989    990     1  0.0000000  0.6508444  3
    966    964    967    968     1  0.0000000  0.6508444  3
    966    964    967    969     1  0.0000000  1.0460000  1
    966    964    967    969     1  0.0000000  0.0000000  3
    966    964    967    987     1  0.0000000  0.6508444  3
    965    964    967    968     1  0.0000000  0.6508444  3
    965    964    967    969     1  0.0000000  1.0460000  1
    965    964    967    969     1  0.0000000  0.0000000  3
    965    964    967    987     1  0.0000000  0.6508444  3
    964    967    987    988     1  0.0000000  0.6508444  3
    963    964    967    968     1  0.0000000  1.0460000  1
    963    964    967    968     1  0.0000000  0.0000000  3
    960    963    964    965     1  0.0000000  1.6038667  3
    960    963    964    966     1  0.0000000  1.6038667  3
   1021   1020   1018   1024     1  0.0000000  1.0460000  1
   1021   1020   1018   1024     1  0.0000000  0.0000000  3
   1021   1020   1022   1023     1  0.0000000  0.6973333  3
   1019   1018   1020   1021     1  0.0000000  0.6508444  3
   1019   1018   1020   1022     1  0.0000000  1.0460000  1
   1019   1018   1020   1022     1  0.0000000  0.0000000  3
   1019   1018   1024   1025     1  0.0000000  1.6038667  3
   1018   1020   1022   1023     1  0.0000000  1.0460000  1
   1018   1020   1022   1023     1  0.0000000  0.6694400  3
   1014   1012   1011   1015     1  180.0000771  10.0416000  2
   1013   1012   1011   1015     1  180.0000771  10.0416000  2
   1010   1009   1011   1012     1  180.0000771  10.6692000  2
   1010   1009   1011   1015     1  180.0000771  10.6692000  2
   1009   1011   1012   1013     1  180.0000771  10.0416000  2
   1009   1011   1012   1014     1  180.0000771  10.0416000  2
   1008   1007   1006   1016     1  180.0000771  7.7404000  2
   1008   1007   1009   1010     1  180.0000771  27.8236000  2
   1008   1007   1009   1011     1  180.0000771  27.8236000  2
   1006   1004   1020   1021     1  0.0000000  0.6508444  3
   1006   1007   1009   1010     1  180.0000771  27.8236000  2
   1005   1004   1006   1007     1  0.0000000  0.0000000  2
   1005   1004   1006   1016     1  0.0000000  0.0000000  2
   1005   1004   1020   1018     1  0.0000000  0.6508444  3
   1005   1004   1020   1021     1  0.0000000  0.6508444  3
   1005   1004   1020   1022     1  0.0000000  0.6508444  3
   1004   1006   1007   1008     1  180.0000771  7.7404000  2
   1004   1020   1018   1019     1  0.0000000  0.6508444  3
   1004   1020   1022   1023     1  0.0000000  1.0460000  1
   1004   1020   1022   1023     1  0.0000000  0.6694400  3
   1003   1001   1018   1019     1  0.0000000  1.0460000  1
   1003   1001   1018   1019     1  0.0000000  0.0000000  3
   1003   1004   1020   1021     1  0.0000000  1.0460000  1
   1003   1004   1020   1021     1  0.0000000  0.0000000  3
   1002   1001   1003   1004     1  0.0000000  1.6038667  3
   1002   1001   1018   1019     1  0.0000000  0.6508444  3
   1002   1001   1018   1020     1  0.0000000  0.6508444  3
   1002   1001   1018   1024     1  0.0000000  1.0460000  1
   1002   1001   1018   1024     1  0.0000000  0.0000000  3
   1001   1003   1004   1005     1  0.0000000  1.6038667  3
   1001   1018   1020   1021     1  0.0000000  0.6508444  3
   1000    998   1001   1002     1  0.0000000  0.6508444  3
   1000    998   1001   1003     1  0.0000000  1.0460000  1
   1000    998   1001   1003     1  0.0000000  0.0000000  3
   1000    998   1001   1018     1  0.0000000  0.6508444  3
    999    998   1001   1002     1  0.0000000  0.6508444  3
    999    998   1001   1003     1  0.0000000  1.0460000  1
    999    998   1001   1003     1  0.0000000  0.0000000  3
    999    998   1001   1018     1  0.0000000  0.6508444  3
    998   1001   1018   1019     1  0.0000000  0.6508444  3
    997    998   1001   1002     1  0.0000000  1.0460000  1
    997    998   1001   1002     1  0.0000000  0.0000000  3
    994    997    998    999     1  0.0000000  1.6038667  3
    994    997    998   1000     1  0.0000000  1.6038667  3
   1052   1051   1049   1055     1  0.0000000  1.0460000  1
   1052   1051   1049   1055     1  0.0000000  0.0000000  3
   1052   1051   1053   1054     1  0.0000000  0.6973333  3
   1050   1049   1051   1052     1  0.0000000  0.6508444  3
   1050   1049   1051   1053     1  0.0000000  1.0460000  1
   1050   1049   1051   1053     1  0.0000000  0.0000000  3
   1050   1049   1055   1056     1  0.0000000  1.6038667  3
   1049   1051   1053   1054     1  0.0000000  1.0460000  1
   1049   1051   1053   1054     1  0.0000000  0.6694400  3
   1045   1043   1042   1046     1  180.0000771  10.0416000  2
   1044   1043   1042   1046     1  180.0000771  10.0416000  2
   1041   1040   1042   1043     1  180.0000771  10.6692000  2
   1041   1040   1042   1046     1  180.0000771  10.6692000  2
   1040   1042   1043   1044     1  180.0000771  10.0416000  2
   1040   1042   1043   1045     1  180.0000771  10.0416000  2
   1039   1038   1037   1047     1  180.0000771  7.7404000  2
   1039   1038   1040   1041     1  180.0000771  27.8236000  2
   1039   1038   1040   1042     1  180.0000771  27.8236000  2
   1037   1035   1051   1052     1  0.0000000  0.6508444  3
   1037   1038   1040   1041     1  180.0000771  27.8236000  2
   1036   1035   1037   1038     1  0.0000000  0.0000000  2
   1036   1035   1037   1047     1  0.0000000  0.0000000  2
   1036   1035   1051   1049     1  0.0000000  0.6508444  3
   1036   1035   1051   1052     1  0.0000000  0.6508444  3
   1036   1035   1051   1053     1  0.0000000  0.6508444  3
   1035   1037   1038   1039     1  180.0000771  7.7404000  2
   1035   1051   1049   1050     1  0.0000000  0.6508444  3
   1035   1051   1053   1054     1  0.0000000  1.0460000  1
   1035   1051   1053   1054     1  0.0000000  0.6694400  3
   1034   1032   1049   1050     1  0.0000000  1.0460000  1
   1034   1032   1049   1050     1  0.0000000  0.0000000  3
   1034   1035   1051   1052     1  0.0000000  1.0460000  1
   1034   1035   1051   1052     1  0.0000000  0.0000000  3
   1033   1032   1034   1035     1  0.0000000  1.6038667  3
   1033   1032   1049   1050     1  0.0000000  0.6508444  3
   1033   1032   1049   1051     1  0.0000000  0.6508444  3
   1033   1032   1049   1055     1  0.0000000  1.0460000  1
   1033   1032   1049   1055     1  0.0000000  0.0000000  3
   1032   1034   1035   1036     1  0.0000000  1.6038667  3
   1032   1049   1051   1052     1  0.0000000  0.6508444  3
   1031   1029   1032   1033     1  0.0000000  0.6508444  3
   1031   1029   1032   1034     1  0.0000000  1.0460000  1
   1031   1029   1032   1034     1  0.0000000  0.0000000  3
   1031   1029   1032   1049     1  0.0000000  0.6508444  3
   1030   1029   1032   1033     1  0.0000000  0.6508444  3
   1030   1029   1032   1034     1  0.0000000  1.0460000  1
   1030   1029   1032   1034     1  0.0000000  0.0000000  3
   1030   1029   1032   1049     1  0.0000000  0.6508444  3
   1029   1032   1049   1050     1  0.0000000  0.6508444  3
   1028   1029   1032   1033     1  0.0000000  1.0460000  1
   1028   1029   1032   1033     1  0.0000000  0.0000000  3
   1025   1028   1029   1030     1  0.0000000  1.6038667  3
   1025   1028   1029   1031     1  0.0000000  1.6038667  3
   1083   1082   1080   1086     1  0.0000000  1.0460000  1
   1083   1082   1080   1086     1  0.0000000  0.0000000  3
   1083   1082   1084   1085     1  0.0000000  0.6973333  3
   1081   1080   1082   1083     1  0.0000000  0.6508444  3
   1081   1080   1082   1084     1  0.0000000  1.0460000  1
   1081   1080   1082   1084     1  0.0000000  0.0000000  3
   1081   1080   1086   1087     1  0.0000000  1.6038667  3
   1080   1082   1084   1085     1  0.0000000  1.0460000  1
   1080   1082   1084   1085     1  0.0000000  0.6694400  3
   1076   1074   1073   1077     1  180.0000771  10.0416000  2
   1075   1074   1073   1077     1  180.0000771  10.0416000  2
   1072   1071   1073   1074     1  180.0000771  10.6692000  2
   1072   1071   1073   1077     1  180.0000771  10.6692000  2
   1071   1073   1074   1075     1  180.0000771  10.0416000  2
   1071   1073   1074   1076     1  180.0000771  10.0416000  2
   1070   1069   1068   1078     1  180.0000771  7.7404000  2
   1070   1069   1071   1072     1  180.0000771  27.8236000  2
   1070   1069   1071   1073     1  180.0000771  27.8236000  2
   1068   1066   1082   1083     1  0.0000000  0.6508444  3
   1068   1069   1071   1072     1  180.0000771  27.8236000  2
   1067   1066   1068   1069     1  0.0000000  0.0000000  2
   1067   1066   1068   1078     1  0.0000000  0.0000000  2
   1067   1066   1082   1080     1  0.0000000  0.6508444  3
   1067   1066   1082   1083     1  0.0000000  0.6508444  3
   1067   1066   1082   1084     1  0.0000000  0.6508444  3
   1066   1068   1069   1070     1  180.0000771  7.7404000  2
   1066   1082   1080   1081     1  0.0000000  0.6508444  3
   1066   1082   1084   1085     1  0.0000000  1.0460000  1
   1066   1082   1084   1085     1  0.0000000  0.6694400  3
   1065   1063   1080   1081     1  0.0000000  1.0460000  1
   1065   1063   1080   1081     1  0.0000000  0.0000000  3
   1065   1066   1082   1083     1  0.0000000  1.0460000  1
   1065   1066   1082   1083     1  0.0000000  0.0000000  3
   1064   1063   1065   1066     1  0.0000000  1.6038667  3
   1064   1063   1080   1081     1  0.0000000  0.6508444  3
   1064   1063   1080   1082     1  0.0000000  0.6508444  3
   1064   1063   1080   1086     1  0.0000000  1.0460000  1
   1064   1063   1080   1086     1  0.0000000  0.0000000  3
   1063   1065   1066   1067     1  0.0000000  1.6038667  3
   1063   1080   1082   1083     1  0.0000000  0.6508444  3
   1062   1060   1063   1064     1  0.0000000  0.6508444  3
   1062   1060   1063   1065     1  0.0000000  1.0460000  1
   1062   1060   1063   1065     1  0.0000000  0.0000000  3
   1062   1060   1063   1080     1  0.0000000  0.6508444  3
   1061   1060   1063   1064     1  0.0000000  0.6508444  3
   1061   1060   1063   1065     1  0.0000000  1.0460000  1
   1061   1060   1063   1065     1  0.0000000  0.0000000  3
   1061   1060   1063   1080     1  0.0000000  0.6508444  3
   1060   1063   1080   1081     1  0.0000000  0.6508444  3
   1059   1060   1063   1064     1  0.0000000  1.0460000  1
   1059   1060   1063   1064     1  0.0000000  0.0000000  3
   1056   1059   1060   1061     1  0.0000000  1.6038667  3
   1056   1059   1060   1062     1  0.0000000  1.6038667  3
   1117   1116   1114   1120     1  0.0000000  1.0460000  1
   1117   1116   1114   1120     1  0.0000000  0.0000000  3
   1117   1116   1118   1119     1  0.0000000  0.6973333  3
   1115   1114   1116   1117     1  0.0000000  0.6508444  3
   1115   1114   1116   1118     1  0.0000000  1.0460000  1
   1115   1114   1116   1118     1  0.0000000  0.0000000  3
   1115   1114   1120   1121     1  0.0000000  1.6038667  3
   1114   1116   1118   1119     1  0.0000000  1.0460000  1
   1114   1116   1118   1119     1  0.0000000  0.6694400  3
   1111   1109   1108   1112     1  180.0000771  10.0416000  2
   1110   1109   1108   1112     1  180.0000771  10.0416000  2
   1107   1106   1108   1109     1  180.0000771  6.2760000  2
   1107   1106   1108   1112     1  180.0000771  6.2760000  2
   1106   1108   1109   1110     1  180.0000771  10.0416000  2
   1106   1108   1109   1111     1  180.0000771  10.0416000  2
   1105   1104   1106   1107     1  180.0000771  5.6484000  2
   1103   1104   1106   1107     1  180.0000771  5.6484000  2
   1101   1100   1099   1113     1  180.0000771  7.1128000  2
   1101   1100   1102   1103     1  180.0000771  41.8400000  2
   1099   1097   1116   1117     1  0.0000000  0.6508444  3
   1098   1097   1099   1100     1  0.0000000  0.0000000  2
   1098   1097   1099   1113     1  0.0000000  0.0000000  2
   1098   1097   1116   1114     1  0.0000000  0.6508444  3
   1098   1097   1116   1117     1  0.0000000  0.6508444  3
   1098   1097   1116   1118     1  0.0000000  0.6508444  3
   1097   1099   1100   1101     1  180.0000771  7.1128000  2
   1097   1116   1114   1115     1  0.0000000  0.6508444  3
   1097   1116   1118   1119     1  0.0000000  1.0460000  1
   1097   1116   1118   1119     1  0.0000000  0.6694400  3
   1096   1094   1114   1115     1  0.0000000  1.0460000  1
   1096   1094   1114   1115     1  0.0000000  0.0000000  3
   1096   1097   1116   1117     1  0.0000000  1.0460000  1
   1096   1097   1116   1117     1  0.0000000  0.0000000  3
   1095   1094   1096   1097     1  0.0000000  1.6038667  3
   1095   1094   1114   1115     1  0.0000000  0.6508444  3
   1095   1094   1114   1116     1  0.0000000  0.6508444  3
   1095   1094   1114   1120     1  0.0000000  1.0460000  1
   1095   1094   1114   1120     1  0.0000000  0.0000000  3
   1094   1096   1097   1098     1  0.0000000  1.6038667  3
   1094   1114   1116   1117     1  0.0000000  0.6508444  3
   1093   1091   1094   1095     1  0.0000000  0.6508444  3
   1093   1091   1094   1096     1  0.0000000  1.0460000  1
   1093   1091   1094   1096     1  0.0000000  0.0000000  3
   1093   1091   1094   1114     1  0.0000000  0.6508444  3
   1092   1091   1094   1095     1  0.0000000  0.6508444  3
   1092   1091   1094   1096     1  0.0000000  1.0460000  1
   1092   1091   1094   1096     1  0.0000000  0.0000000  3
   1092   1091   1094   1114     1  0.0000000  0.6508444  3
   1091   1094   1114   1115     1  0.0000000  0.6508444  3
   1090   1091   1094   1095     1  0.0000000  1.0460000  1
   1090   1091   1094   1095     1  0.0000000  0.0000000  3
   1087   1090   1091   1092     1  0.0000000  1.6038667  3
   1087   1090   1091   1093     1  0.0000000  1.6038667  3
   1147   1146   1144   1150     1  0.0000000  1.0460000  1
   1147   1146   1144   1150     1  0.0000000  0.0000000  3
   1147   1146   1148   1149     1  0.0000000  0.6973333  3
   1145   1144   1146   1147     1  0.0000000  0.6508444  3
   1145   1144   1146   1148     1  0.0000000  1.0460000  1
   1145   1144   1146   1148     1  0.0000000  0.0000000  3
   1145   1144   1150   1151     1  0.0000000  1.6038667  3
   1144   1146   1148   1149     1  0.0000000  1.0460000  1
   1144   1146   1148   1149     1  0.0000000  0.6694400  3
   1141   1140   1142   1143     1  180.0000771  5.6484000  2
   1139   1138   1140   1141     1  180.0000771  5.6484000  2
   1137   1136   1138   1139     1  180.0000771  9.1002000  2
   1137   1136   1138   1140     1  180.0000771  9.1002000  2
   1136   1138   1140   1141     1  180.0000771  5.6484000  2
   1135   1134   1133   1142     1  180.0000771  7.7404000  2
   1135   1134   1136   1137     1  180.0000771  27.8236000  2
   1135   1134   1136   1138     1  180.0000771  27.8236000  2
   1133   1131   1146   1147     1  0.0000000  0.6508444  3
   1133   1134   1136   1137     1  180.0000771  27.8236000  2
   1133   1142   1140   1141     1  180.0000771  5.6484000  2
   1132   1131   1133   1134     1  0.0000000  0.0000000  2
   1132   1131   1133   1142     1  0.0000000  0.0000000  2
   1132   1131   1146   1144     1  0.0000000  0.6508444  3
   1132   1131   1146   1147     1  0.0000000  0.6508444  3
   1132   1131   1146   1148     1  0.0000000  0.6508444  3
   1131   1133   1134   1135     1  180.0000771  7.7404000  2
   1131   1146   1144   1145     1  0.0000000  0.6508444  3
   1131   1146   1148   1149     1  0.0000000  1.0460000  1
   1131   1146   1148   1149     1  0.0000000  0.6694400  3
   1130   1128   1144   1145     1  0.0000000  1.0460000  1
   1130   1128   1144   1145     1  0.0000000  0.0000000  3
   1130   1131   1146   1147     1  0.0000000  1.0460000  1
   1130   1131   1146   1147     1  0.0000000  0.0000000  3
   1129   1128   1130   1131     1  0.0000000  1.6038667  3
   1129   1128   1144   1145     1  0.0000000  0.6508444  3
   1129   1128   1144   1146     1  0.0000000  0.6508444  3
   1129   1128   1144   1150     1  0.0000000  1.0460000  1
   1129   1128   1144   1150     1  0.0000000  0.0000000  3
   1128   1130   1131   1132     1  0.0000000  1.6038667  3
   1128   1144   1146   1147     1  0.0000000  0.6508444  3
   1127   1125   1128   1129     1  0.0000000  0.6508444  3
   1127   1125   1128   1130     1  0.0000000  1.0460000  1
   1127   1125   1128   1130     1  0.0000000  0.0000000  3
   1127   1125   1128   1144     1  0.0000000  0.6508444  3
   1126   1125   1128   1129     1  0.0000000  0.6508444  3
   1126   1125   1128   1130     1  0.0000000  1.0460000  1
   1126   1125   1128   1130     1  0.0000000  0.0000000  3
   1126   1125   1128   1144     1  0.0000000  0.6508444  3
   1125   1128   1144   1145     1  0.0000000  0.6508444  3
   1124   1125   1128   1129     1  0.0000000  1.0460000  1
   1124   1125   1128   1129     1  0.0000000  0.0000000  3
   1121   1124   1125   1126     1  0.0000000  1.6038667  3
   1121   1124   1125   1127     1  0.0000000  1.6038667  3
   1178   1177   1175   1181     1  0.0000000  1.0460000  1
   1178   1177   1175   1181     1  0.0000000  0.0000000  3
   1178   1177   1179   1180     1  0.0000000  0.6973333  3
   1176   1175   1177   1178     1  0.0000000  0.6508444  3
   1176   1175   1177   1179     1  0.0000000  1.0460000  1
   1176   1175   1177   1179     1  0.0000000  0.0000000  3
   1176   1175   1181   1182     1  0.0000000  1.6038667  3
   1175   1177   1179   1180     1  0.0000000  1.0460000  1
   1175   1177   1179   1180     1  0.0000000  0.6694400  3
   1171   1169   1168   1172     1  180.0000771  10.0416000  2
   1170   1169   1168   1172     1  180.0000771  10.0416000  2
   1167   1166   1168   1169     1  180.0000771  10.6692000  2
   1167   1166   1168   1172     1  180.0000771  10.6692000  2
   1166   1168   1169   1170     1  180.0000771  10.0416000  2
   1166   1168   1169   1171     1  180.0000771  10.0416000  2
   1165   1164   1163   1173     1  180.0000771  7.7404000  2
   1165   1164   1166   1167     1  180.0000771  27.8236000  2
   1165   1164   1166   1168     1  180.0000771  27.8236000  2
   1163   1161   1177   1178     1  0.0000000  0.6508444  3
   1163   1164   1166   1167     1  180.0000771  27.8236000  2
   1162   1161   1163   1164     1  0.0000000  0.0000000  2
   1162   1161   1163   1173     1  0.0000000  0.0000000  2
   1162   1161   1177   1175     1  0.0000000  0.6508444  3
   1162   1161   1177   1178     1  0.0000000  0.6508444  3
   1162   1161   1177   1179     1  0.0000000  0.6508444  3
   1161   1163   1164   1165     1  180.0000771  7.7404000  2
   1161   1177   1175   1176     1  0.0000000  0.6508444  3
   1161   1177   1179   1180     1  0.0000000  1.0460000  1
   1161   1177   1179   1180     1  0.0000000  0.6694400  3
   1160   1158   1175   1176     1  0.0000000  1.0460000  1
   1160   1158   1175   1176     1  0.0000000  0.0000000  3
   1160   1161   1177   1178     1  0.0000000  1.0460000  1
   1160   1161   1177   1178     1  0.0000000  0.0000000  3
   1159   1158   1160   1161     1  0.0000000  1.6038667  3
   1159   1158   1175   1176     1  0.0000000  0.6508444  3
   1159   1158   1175   1177     1  0.0000000  0.6508444  3
   1159   1158   1175   1181     1  0.0000000  1.0460000  1
   1159   1158   1175   1181     1  0.0000000  0.0000000  3
   1158   1160   1161   1162     1  0.0000000  1.6038667  3
   1158   1175   1177   1178     1  0.0000000  0.6508444  3
   1157   1155   1158   1159     1  0.0000000  0.6508444  3
   1157   1155   1158   1160     1  0.0000000  1.0460000  1
   1157   1155   1158   1160     1  0.0000000  0.0000000  3
   1157   1155   1158   1175     1  0.0000000  0.6508444  3
   1156   1155   1158   1159     1  0.0000000  0.6508444  3
   1156   1155   1158   1160     1  0.0000000  1.0460000  1
   1156   1155   1158   1160     1  0.0000000  0.0000000  3
   1156   1155   1158   1175     1  0.0000000  0.6508444  3
   1155   1158   1175   1176     1  0.0000000  0.6508444  3
   1154   1155   1158   1159     1  0.0000000  1.0460000  1
   1154   1155   1158   1159     1  0.0000000  0.0000000  3
   1151   1154   1155   1156     1  0.0000000  1.6038667  3
   1151   1154   1155   1157     1  0.0000000  1.6038667  3
   1208   1207   1205   1211     1  0.0000000  1.0460000  1
   1208   1207   1205   1211     1  0.0000000  0.0000000  3
   1208   1207   1209   1210     1  0.0000000  0.6973333  3
   1206   1205   1207   1208     1  0.0000000  0.6508444  3
   1206   1205   1207   1209     1  0.0000000  1.0460000  1
   1206   1205   1207   1209     1  0.0000000  0.0000000  3
   1206   1205   1211   1212     1  0.0000000  1.6038667  3
   1205   1207   1209   1210     1  0.0000000  1.0460000  1
   1205   1207   1209   1210     1  0.0000000  0.6694400  3
   1202   1201   1203   1204     1  180.0000771  5.6484000  2
   1200   1199   1201   1202     1  180.0000771  5.6484000  2
   1198   1197   1199   1200     1  180.0000771  9.1002000  2
   1198   1197   1199   1201     1  180.0000771  9.1002000  2
   1197   1199   1201   1202     1  180.0000771  5.6484000  2
   1196   1195   1194   1203     1  180.0000771  7.7404000  2
   1196   1195   1197   1198     1  180.0000771  27.8236000  2
   1196   1195   1197   1199     1  180.0000771  27.8236000  2
   1194   1192   1207   1208     1  0.0000000  0.6508444  3
   1194   1195   1197   1198     1  180.0000771  27.8236000  2
   1194   1203   1201   1202     1  180.0000771  5.6484000  2
   1193   1192   1194   1195     1  0.0000000  0.0000000  2
   1193   1192   1194   1203     1  0.0000000  0.0000000  2
   1193   1192   1207   1205     1  0.0000000  0.6508444  3
   1193   1192   1207   1208     1  0.0000000  0.6508444  3
   1193   1192   1207   1209     1  0.0000000  0.6508444  3
   1192   1194   1195   1196     1  180.0000771  7.7404000  2
   1192   1207   1205   1206     1  0.0000000  0.6508444  3
   1192   1207   1209   1210     1  0.0000000  1.0460000  1
   1192   1207   1209   1210     1  0.0000000  0.6694400  3
   1191   1189   1205   1206     1  0.0000000  1.0460000  1
   1191   1189   1205   1206     1  0.0000000  0.0000000  3
   1191   1192   1207   1208     1  0.0000000  1.0460000  1
   1191   1192   1207   1208     1  0.0000000  0.0000000  3
   1190   1189   1191   1192     1  0.0000000  1.6038667  3
   1190   1189   1205   1206     1  0.0000000  0.6508444  3
   1190   1189   1205   1207     1  0.0000000  0.6508444  3
   1190   1189   1205   1211     1  0.0000000  1.0460000  1
   1190   1189   1205   1211     1  0.0000000  0.0000000  3
   1189   1191   1192   1193     1  0.0000000  1.6038667  3
   1189   1205   1207   1208     1  0.0000000  0.6508444  3
   1188   1186   1189   1190     1  0.0000000  0.6508444  3
   1188   1186   1189   1191     1  0.0000000  1.0460000  1
   1188   1186   1189   1191     1  0.0000000  0.0000000  3
   1188   1186   1189   1205     1  0.0000000  0.6508444  3
   1187   1186   1189   1190     1  0.0000000  0.6508444  3
   1187   1186   1189   1191     1  0.0000000  1.0460000  1
   1187   1186   1189   1191     1  0.0000000  0.0000000  3
   1187   1186   1189   1205     1  0.0000000  0.6508444  3
   1186   1189   1205   1206     1  0.0000000  0.6508444  3
   1185   1186   1189   1190     1  0.0000000  1.0460000  1
   1185   1186   1189   1190     1  0.0000000  0.0000000  3
   1182   1185   1186   1187     1  0.0000000  1.6038667  3
   1182   1185   1186   1188     1  0.0000000  1.6038667  3
   1238   1237   1235   1241     1  0.0000000  1.0460000  1
   1238   1237   1235   1241     1  0.0000000  0.0000000  3
   1238   1237   1239   1240     1  0.0000000  0.6973333  3
   1236   1235   1237   1238     1  0.0000000  0.6508444  3
   1236   1235   1237   1239     1  0.0000000  1.0460000  1
   1236   1235   1237   1239     1  0.0000000  0.0000000  3
   1236   1235   1241   1242     1  0.0000000  1.6038667  3
   1235   1237   1239   1240     1  0.0000000  1.0460000  1
   1235   1237   1239   1240     1  0.0000000  0.6694400  3
   1232   1231   1233   1234     1  180.0000771  5.6484000  2
   1230   1229   1231   1232     1  180.0000771  5.6484000  2
   1228   1227   1229   1230     1  180.0000771  9.1002000  2
   1228   1227   1229   1231     1  180.0000771  9.1002000  2
   1227   1229   1231   1232     1  180.0000771  5.6484000  2
   1226   1225   1224   1233     1  180.0000771  7.7404000  2
   1226   1225   1227   1228     1  180.0000771  27.8236000  2
   1226   1225   1227   1229     1  180.0000771  27.8236000  2
   1224   1222   1237   1238     1  0.0000000  0.6508444  3
   1224   1225   1227   1228     1  180.0000771  27.8236000  2
   1224   1233   1231   1232     1  180.0000771  5.6484000  2
   1223   1222   1224   1225     1  0.0000000  0.0000000  2
   1223   1222   1224   1233     1  0.0000000  0.0000000  2
   1223   1222   1237   1235     1  0.0000000  0.6508444  3
   1223   1222   1237   1238     1  0.0000000  0.6508444  3
   1223   1222   1237   1239     1  0.0000000  0.6508444  3
   1222   1224   1225   1226     1  180.0000771  7.7404000  2
   1222   1237   1235   1236     1  0.0000000  0.6508444  3
   1222   1237   1239   1240     1  0.0000000  1.0460000  1
   1222   1237   1239   1240     1  0.0000000  0.6694400  3
   1221   1219   1235   1236     1  0.0000000  1.0460000  1
   1221   1219   1235   1236     1  0.0000000  0.0000000  3
   1221   1222   1237   1238     1  0.0000000  1.0460000  1
   1221   1222   1237   1238     1  0.0000000  0.0000000  3
   1220   1219   1221   1222     1  0.0000000  1.6038667  3
   1220   1219   1235   1236     1  0.0000000  0.6508444  3
   1220   1219   1235   1237     1  0.0000000  0.6508444  3
   1220   1219   1235   1241     1  0.0000000  1.0460000  1
   1220   1219   1235   1241     1  0.0000000  0.0000000  3
   1219   1221   1222   1223     1  0.0000000  1.6038667  3
   1219   1235   1237   1238     1  0.0000000  0.6508444  3
   1218   1216   1219   1220     1  0.0000000  0.6508444  3
   1218   1216   1219   1221     1  0.0000000  1.0460000  1
   1218   1216   1219   1221     1  0.0000000  0.0000000  3
   1218   1216   1219   1235     1  0.0000000  0.6508444  3
   1217   1216   1219   1220     1  0.0000000  0.6508444  3
   1217   1216   1219   1221     1  0.0000000  1.0460000  1
   1217   1216   1219   1221     1  0.0000000  0.0000000  3
   1217   1216   1219   1235     1  0.0000000  0.6508444  3
   1216   1219   1235   1236     1  0.0000000  0.6508444  3
   1215   1216   1219   1220     1  0.0000000  1.0460000  1
   1215   1216   1219   1220     1  0.0000000  0.0000000  3
   1212   1215   1216   1217     1  0.0000000  1.6038667  3
   1212   1215   1216   1218     1  0.0000000  1.6038667  3
   1271   1270   1268   1274     1  0.0000000  1.0460000  1
   1271   1270   1268   1274     1  0.0000000  0.0000000  3
   1271   1270   1272   1273     1  0.0000000  0.6973333  3
   1269   1268   1270   1271     1  0.0000000  0.6508444  3
   1269   1268   1270   1272     1  0.0000000  1.0460000  1
   1269   1268   1270   1272     1  0.0000000  0.0000000  3
   1269   1268   1274   1275     1  0.0000000  1.6038667  3
   1268   1270   1272   1273     1  0.0000000  1.0460000  1
   1268   1270   1272   1273     1  0.0000000  0.6694400  3
   1265   1264   1266   1267     1  180.0000771  28.4512000  2
   1262   1260   1259   1263     1  180.0000771  10.0416000  2
   1261   1260   1259   1263     1  180.0000771  10.0416000  2
   1259   1263   1264   1265     1  180.0000771  28.4512000  2
   1258   1259   1260   1261     1  180.0000771  10.0416000  2
   1258   1259   1260   1262     1  180.0000771  10.0416000  2
   1256   1255   1254   1267     1  180.0000771  7.1128000  2
   1256   1255   1257   1258     1  180.0000771  41.8400000  2
   1254   1252   1270   1271     1  0.0000000  0.6508444  3
   1253   1252   1254   1255     1  0.0000000  0.0000000  2
   1253   1252   1254   1267     1  0.0000000  0.0000000  2
   1253   1252   1270   1268     1  0.0000000  0.6508444  3
   1253   1252   1270   1271     1  0.0000000  0.6508444  3
   1253   1252   1270   1272     1  0.0000000  0.6508444  3
   1252   1254   1255   1256     1  180.0000771  7.1128000  2
   1252   1270   1268   1269     1  0.0000000  0.6508444  3
   1252   1270   1272   1273     1  0.0000000  1.0460000  1
   1252   1270   1272   1273     1  0.0000000  0.6694400  3
   1251   1249   1268   1269     1  0.0000000  1.0460000  1
   1251   1249   1268   1269     1  0.0000000  0.0000000  3
   1251   1252   1270   1271     1  0.0000000  1.0460000  1
   1251   1252   1270   1271     1  0.0000000  0.0000000  3
   1250   1249   1251   1252     1  0.0000000  1.6038667  3
   1250   1249   1268   1269     1  0.0000000  0.6508444  3
   1250   1249   1268   1270     1  0.0000000  0.6508444  3
   1250   1249   1268   1274     1  0.0000000  1.0460000  1
   1250   1249   1268   1274     1  0.0000000  0.0000000  3
   1249   1251   1252   1253     1  0.0000000  1.6038667  3
   1249   1268   1270   1271     1  0.0000000  0.6508444  3
   1248   1246   1249   1250     1  0.0000000  0.6508444  3
   1248   1246   1249   1251     1  0.0000000  1.0460000  1
   1248   1246   1249   1251     1  0.0000000  0.0000000  3
   1248   1246   1249   1268     1  0.0000000  0.6508444  3
   1247   1246   1249   1250     1  0.0000000  0.6508444  3
   1247   1246   1249   1251     1  0.0000000  1.0460000  1
   1247   1246   1249   1251     1  0.0000000  0.0000000  3
   1247   1246   1249   1268     1  0.0000000  0.6508444  3
   1246   1249   1268   1269     1  0.0000000  0.6508444  3
   1245   1246   1249   1250     1  0.0000000  1.0460000  1
   1245   1246   1249   1250     1  0.0000000  0.0000000  3
   1242   1245   1246   1247     1  0.0000000  1.6038667  3
   1242   1245   1246   1248     1  0.0000000  1.6038667  3
   1302   1301   1299   1305     1  0.0000000  1.0460000  1
   1302   1301   1299   1305     1  0.0000000  0.0000000  3
   1302   1301   1303   1304     1  0.0000000  0.6973333  3
   1300   1299   1301   1302     1  0.0000000  0.6508444  3
   1300   1299   1301   1303     1  0.0000000  1.0460000  1
   1300   1299   1301   1303     1  0.0000000  0.0000000  3
   1300   1299   1305   1306     1  0.0000000  1.6038667  3
   1299   1301   1303   1304     1  0.0000000  1.0460000  1
   1299   1301   1303   1304     1  0.0000000  0.6694400  3
   1295   1293   1292   1296     1  180.0000771  10.0416000  2
   1294   1293   1292   1296     1  180.0000771  10.0416000  2
   1291   1290   1292   1293     1  180.0000771  10.6692000  2
   1291   1290   1292   1296     1  180.0000771  10.6692000  2
   1290   1292   1293   1294     1  180.0000771  10.0416000  2
   1290   1292   1293   1295     1  180.0000771  10.0416000  2
   1289   1288   1287   1297     1  180.0000771  7.7404000  2
   1289   1288   1290   1291     1  180.0000771  27.8236000  2
   1289   1288   1290   1292     1  180.0000771  27.8236000  2
   1287   1285   1301   1302     1  0.0000000  0.6508444  3
   1287   1288   1290   1291     1  180.0000771  27.8236000  2
   1286   1285   1287   1288     1  0.0000000  0.0000000  2
   1286   1285   1287   1297     1  0.0000000  0.0000000  2
   1286   1285   1301   1299     1  0.0000000  0.6508444  3
   1286   1285   1301   1302     1  0.0000000  0.6508444  3
   1286   1285   1301   1303     1  0.0000000  0.6508444  3
   1285   1287   1288   1289     1  180.0000771  7.7404000  2
   1285   1301   1299   1300     1  0.0000000  0.6508444  3
   1285   1301   1303   1304     1  0.0000000  1.0460000  1
   1285   1301   1303   1304     1  0.0000000  0.6694400  3
   1284   1282   1299   1300     1  0.0000000  1.0460000  1
   1284   1282   1299   1300     1  0.0000000  0.0000000  3
   1284   1285   1301   1302     1  0.0000000  1.0460000  1
   1284   1285   1301   1302     1  0.0000000  0.0000000  3
   1283   1282   1284   1285     1  0.0000000  1.6038667  3
   1283   1282   1299   1300     1  0.0000000  0.6508444  3
   1283   1282   1299   1301     1  0.0000000  0.6508444  3
   1283   1282   1299   1305     1  0.0000000  1.0460000  1
   1283   1282   1299   1305     1  0.0000000  0.0000000  3
   1282   1284   1285   1286     1  0.0000000  1.6038667  3
   1282   1299   1301   1302     1  0.0000000  0.6508444  3
   1281   1279   1282   1283     1  0.0000000  0.6508444  3
   1281   1279   1282   1284     1  0.0000000  1.0460000  1
   1281   1279   1282   1284     1  0.0000000  0.0000000  3
   1281   1279   1282   1299     1  0.0000000  0.6508444  3
   1280   1279   1282   1283     1  0.0000000  0.6508444  3
   1280   1279   1282   1284     1  0.0000000  1.0460000  1
   1280   1279   1282   1284     1  0.0000000  0.0000000  3
   1280   1279   1282   1299     1  0.0000000  0.6508444  3
   1279   1282   1299   1300     1  0.0000000  0.6508444  3
   1278   1279   1282   1283     1  0.0000000  1.0460000  1
   1278   1279   1282   1283     1  0.0000000  0.0000000  3
   1275   1278   1279   1280     1  0.0000000  1.6038667  3
   1275   1278   1279   1281     1  0.0000000  1.6038667  3
   1335   1334   1332   1338     1  0.0000000  1.0460000  1
   1335   1334   1332   1338     1  0.0000000  0.0000000  3
   1335   1334   1336   1337     1  0.0000000  0.6973333  3
   1333   1332   1334   1335     1  0.0000000  0.6508444  3
   1333   1332   1334   1336     1  0.0000000  1.0460000  1
   1333   1332   1334   1336     1  0.0000000  0.0000000  3
   1333   1332   1338   1339     1  0.0000000  1.6038667  3
   1332   1334   1336   1337     1  0.0000000  1.0460000  1
   1332   1334   1336   1337     1  0.0000000  0.6694400  3
   1329   1328   1330   1331     1  180.0000771  28.4512000  2
   1326   1324   1323   1327     1  180.0000771  10.0416000  2
   1325   1324   1323   1327     1  180.0000771  10.0416000  2
   1323   1327   1328   1329     1  180.0000771  28.4512000  2
   1322   1323   1324   1325     1  180.0000771  10.0416000  2
   1322   1323   1324   1326     1  180.0000771  10.0416000  2
   1320   1319   1318   1331     1  180.0000771  7.1128000  2
   1320   1319   1321   1322     1  180.0000771  41.8400000  2
   1318   1316   1334   1335     1  0.0000000  0.6508444  3
   1317   1316   1318   1319     1  0.0000000  0.0000000  2
   1317   1316   1318   1331     1  0.0000000  0.0000000  2
   1317   1316   1334   1332     1  0.0000000  0.6508444  3
   1317   1316   1334   1335     1  0.0000000  0.6508444  3
   1317   1316   1334   1336     1  0.0000000  0.6508444  3
   1316   1318   1319   1320     1  180.0000771  7.1128000  2
   1316   1334   1332   1333     1  0.0000000  0.6508444  3
   1316   1334   1336   1337     1  0.0000000  1.0460000  1
   1316   1334   1336   1337     1  0.0000000  0.6694400  3
   1315   1313   1332   1333     1  0.0000000  1.0460000  1
   1315   1313   1332   1333     1  0.0000000  0.0000000  3
   1315   1316   1334   1335     1  0.0000000  1.0460000  1
   1315   1316   1334   1335     1  0.0000000  0.0000000  3
   1314   1313   1315   1316     1  0.0000000  1.6038667  3
   1314   1313   1332   1333     1  0.0000000  0.6508444  3
   1314   1313   1332   1334     1  0.0000000  0.6508444  3
   1314   1313   1332   1338     1  0.0000000  1.0460000  1
   1314   1313   1332   1338     1  0.0000000  0.0000000  3
   1313   1315   1316   1317     1  0.0000000  1.6038667  3
   1313   1332   1334   1335     1  0.0000000  0.6508444  3
   1312   1310   1313   1314     1  0.0000000  0.6508444  3
   1312   1310   1313   1315     1  0.0000000  1.0460000  1
   1312   1310   1313   1315     1  0.0000000  0.0000000  3
   1312   1310   1313   1332     1  0.0000000  0.6508444  3
   1311   1310   1313   1314     1  0.0000000  0.6508444  3
   1311   1310   1313   1315     1  0.0000000  1.0460000  1
   1311   1310   1313   1315     1  0.0000000  0.0000000  3
   1311   1310   1313   1332     1  0.0000000  0.6508444  3
   1310   1313   1332   1333     1  0.0000000  0.6508444  3
   1309   1310   1313   1314     1  0.0000000  1.0460000  1
   1309   1310   1313   1314     1  0.0000000  0.0000000  3
   1306   1309   1310   1311     1  0.0000000  1.6038667  3
   1306   1309   1310   1312     1  0.0000000  1.6038667  3
   1366   1365   1363   1369     1  0.0000000  1.0460000  1
   1366   1365   1363   1369     1  0.0000000  0.0000000  3
   1366   1365   1367   1368     1  0.0000000  0.6973333  3
   1364   1363   1365   1366     1  0.0000000  0.6508444  3
   1364   1363   1365   1367     1  0.0000000  1.0460000  1
   1364   1363   1365   1367     1  0.0000000  0.0000000  3
   1364   1363   1369   1370     1  0.0000000  1.6038667  3
   1363   1365   1367   1368     1  0.0000000  1.0460000  1
   1363   1365   1367   1368     1  0.0000000  0.6694400  3
   1359   1357   1356   1360     1  180.0000771  10.0416000  2
   1358   1357   1356   1360     1  180.0000771  10.0416000  2
   1355   1354   1356   1357     1  180.0000771  10.6692000  2
   1355   1354   1356   1360     1  180.0000771  10.6692000  2
   1354   1356   1357   1358     1  180.0000771  10.0416000  2
   1354   1356   1357   1359     1  180.0000771  10.0416000  2
   1353   1352   1351   1361     1  180.0000771  7.7404000  2
   1353   1352   1354   1355     1  180.0000771  27.8236000  2
   1353   1352   1354   1356     1  180.0000771  27.8236000  2
   1351   1349   1365   1366     1  0.0000000  0.6508444  3
   1351   1352   1354   1355     1  180.0000771  27.8236000  2
   1350   1349   1351   1352     1  0.0000000  0.0000000  2
   1350   1349   1351   1361     1  0.0000000  0.0000000  2
   1350   1349   1365   1363     1  0.0000000  0.6508444  3
   1350   1349   1365   1366     1  0.0000000  0.6508444  3
   1350   1349   1365   1367     1  0.0000000  0.6508444  3
   1349   1351   1352   1353     1  180.0000771  7.7404000  2
   1349   1365   1363   1364     1  0.0000000  0.6508444  3
   1349   1365   1367   1368     1  0.0000000  1.0460000  1
   1349   1365   1367   1368     1  0.0000000  0.6694400  3
   1348   1346   1363   1364     1  0.0000000  1.0460000  1
   1348   1346   1363   1364     1  0.0000000  0.0000000  3
   1348   1349   1365   1366     1  0.0000000  1.0460000  1
   1348   1349   1365   1366     1  0.0000000  0.0000000  3
   1347   1346   1348   1349     1  0.0000000  1.6038667  3
   1347   1346   1363   1364     1  0.0000000  0.6508444  3
   1347   1346   1363   1365     1  0.0000000  0.6508444  3
   1347   1346   1363   1369     1  0.0000000  1.0460000  1
   1347   1346   1363   1369     1  0.0000000  0.0000000  3
   1346   1348   1349   1350     1  0.0000000  1.6038667  3
   1346   1363   1365   1366     1  0.0000000  0.6508444  3
   1345   1343   1346   1347     1  0.0000000  0.6508444  3
   1345   1343   1346   1348     1  0.0000000  1.0460000  1
   1345   1343   1346   1348     1  0.0000000  0.0000000  3
   1345   1343   1346   1363     1  0.0000000  0.6508444  3
   1344   1343   1346   1347     1  0.0000000  0.6508444  3
   1344   1343   1346   1348     1  0.0000000  1.0460000  1
   1344   1343   1346   1348     1  0.0000000  0.0000000  3
   1344   1343   1346   1363     1  0.0000000  0.6508444  3
   1343   1346   1363   1364     1  0.0000000  0.6508444  3
   1342   1343   1346   1347     1  0.0000000  1.0460000  1
   1342   1343   1346   1347     1  0.0000000  0.0000000  3
   1339   1342   1343   1344     1  0.0000000  1.6038667  3
   1339   1342   1343   1345     1  0.0000000  1.6038667  3
   1397   1396   1394   1400     1  0.0000000  1.0460000  1
   1397   1396   1394   1400     1  0.0000000  0.0000000  3
   1397   1396   1398   1399     1  0.0000000  0.6973333  3
   1395   1394   1396   1397     1  0.0000000  0.6508444  3
   1395   1394   1396   1398     1  0.0000000  1.0460000  1
   1395   1394   1396   1398     1  0.0000000  0.0000000  3
   1395   1394   1400   1401     1  0.0000000  1.6038667  3
   1394   1396   1398   1399     1  0.0000000  1.0460000  1
   1394   1396   1398   1399     1  0.0000000  0.6694400  3
   1390   1388   1387   1391     1  180.0000771  10.0416000  2
   1389   1388   1387   1391     1  180.0000771  10.0416000  2
   1386   1385   1387   1388     1  180.0000771  10.6692000  2
   1386   1385   1387   1391     1  180.0000771  10.6692000  2
   1385   1387   1388   1389     1  180.0000771  10.0416000  2
   1385   1387   1388   1390     1  180.0000771  10.0416000  2
   1384   1383   1382   1392     1  180.0000771  7.7404000  2
   1384   1383   1385   1386     1  180.0000771  27.8236000  2
   1384   1383   1385   1387     1  180.0000771  27.8236000  2
   1382   1380   1396   1397     1  0.0000000  0.6508444  3
   1382   1383   1385   1386     1  180.0000771  27.8236000  2
   1381   1380   1382   1383     1  0.0000000  0.0000000  2
   1381   1380   1382   1392     1  0.0000000  0.0000000  2
   1381   1380   1396   1394     1  0.0000000  0.6508444  3
   1381   1380   1396   1397     1  0.0000000  0.6508444  3
   1381   1380   1396   1398     1  0.0000000  0.6508444  3
   1380   1382   1383   1384     1  180.0000771  7.7404000  2
   1380   1396   1394   1395     1  0.0000000  0.6508444  3
   1380   1396   1398   1399     1  0.0000000  1.0460000  1
   1380   1396   1398   1399     1  0.0000000  0.6694400  3
   1379   1377   1394   1395     1  0.0000000  1.0460000  1
   1379   1377   1394   1395     1  0.0000000  0.0000000  3
   1379   1380   1396   1397     1  0.0000000  1.0460000  1
   1379   1380   1396   1397     1  0.0000000  0.0000000  3
   1378   1377   1379   1380     1  0.0000000  1.6038667  3
   1378   1377   1394   1395     1  0.0000000  0.6508444  3
   1378   1377   1394   1396     1  0.0000000  0.6508444  3
   1378   1377   1394   1400     1  0.0000000  1.0460000  1
   1378   1377   1394   1400     1  0.0000000  0.0000000  3
   1377   1379   1380   1381     1  0.0000000  1.6038667  3
   1377   1394   1396   1397     1  0.0000000  0.6508444  3
   1376   1374   1377   1378     1  0.0000000  0.6508444  3
   1376   1374   1377   1379     1  0.0000000  1.0460000  1
   1376   1374   1377   1379     1  0.0000000  0.0000000  3
   1376   1374   1377   1394     1  0.0000000  0.6508444  3
   1375   1374   1377   1378     1  0.0000000  0.6508444  3
   1375   1374   1377   1379     1  0.0000000  1.0460000  1
   1375   1374   1377   1379     1  0.0000000  0.0000000  3
   1375   1374   1377   1394     1  0.0000000  0.6508444  3
   1374   1377   1394   1395     1  0.0000000  0.6508444  3
   1373   1374   1377   1378     1  0.0000000  1.0460000  1
   1373   1374   1377   1378     1  0.0000000  0.0000000  3
   1370   1373   1374   1375     1  0.0000000  1.6038667  3
   1370   1373   1374   1376     1  0.0000000  1.6038667  3
   1431   1430   1428   1434     1  0.0000000  1.0460000  1
   1431   1430   1428   1434     1  0.0000000  0.0000000  3
   1431   1430   1432   1433     1  0.0000000  0.6973333  3
   1429   1428   1430   1431     1  0.0000000  0.6508444  3
   1429   1428   1430   1432     1  0.0000000  1.0460000  1
   1429   1428   1430   1432     1  0.0000000  0.0000000  3
   1429   1428   1434   1435     1  0.0000000  1.6038667  3
   1428   1430   1432   1433     1  0.0000000  1.0460000  1
   1428   1430   1432   1433     1  0.0000000  0.6694400  3
   1425   1423   1422   1426     1  180.0000771  10.0416000  2
   1424   1423   1422   1426     1  180.0000771  10.0416000  2
   1421   1420   1422   1423     1  180.0000771  6.2760000  2
   1421   1420   1422   1426     1  180.0000771  6.2760000  2
   1420   1422   1423   1424     1  180.0000771  10.0416000  2
   1420   1422   1423   1425     1  180.0000771  10.0416000  2
   1419   1418   1420   1421     1  180.0000771  5.6484000  2
   1417   1418   1420   1421     1  180.0000771  5.6484000  2
   1415   1414   1413   1427     1  180.0000771  7.1128000  2
   1415   1414   1416   1417     1  180.0000771  41.8400000  2
   1413   1411   1430   1431     1  0.0000000  0.6508444  3
   1412   1411   1413   1414     1  0.0000000  0.0000000  2
   1412   1411   1413   1427     1  0.0000000  0.0000000  2
   1412   1411   1430   1428     1  0.0000000  0.6508444  3
   1412   1411   1430   1431     1  0.0000000  0.6508444  3
   1412   1411   1430   1432     1  0.0000000  0.6508444  3
   1411   1413   1414   1415     1  180.0000771  7.1128000  2
   1411   1430   1428   1429     1  0.0000000  0.6508444  3
   1411   1430   1432   1433     1  0.0000000  1.0460000  1
   1411   1430   1432   1433     1  0.0000000  0.6694400  3
   1410   1408   1428   1429     1  0.0000000  1.0460000  1
   1410   1408   1428   1429     1  0.0000000  0.0000000  3
   1410   1411   1430   1431     1  0.0000000  1.0460000  1
   1410   1411   1430   1431     1  0.0000000  0.0000000  3
   1409   1408   1410   1411     1  0.0000000  1.6038667  3
   1409   1408   1428   1429     1  0.0000000  0.6508444  3
   1409   1408   1428   1430     1  0.0000000  0.6508444  3
   1409   1408   1428   1434     1  0.0000000  1.0460000  1
   1409   1408   1428   1434     1  0.0000000  0.0000000  3
   1408   1410   1411   1412     1  0.0000000  1.6038667  3
   1408   1428   1430   1431     1  0.0000000  0.6508444  3
   1407   1405   1408   1409     1  0.0000000  0.6508444  3
   1407   1405   1408   1410     1  0.0000000  1.0460000  1
   1407   1405   1408   1410     1  0.0000000  0.0000000  3
   1407   1405   1408   1428     1  0.0000000  0.6508444  3
   1406   1405   1408   1409     1  0.0000000  0.6508444  3
   1406   1405   1408   1410     1  0.0000000  1.0460000  1
   1406   1405   1408   1410     1  0.0000000  0.0000000  3
   1406   1405   1408   1428     1  0.0000000  0.6508444  3
   1405   1408   1428   1429     1  0.0000000  0.6508444  3
   1404   1405   1408   1409     1  0.0000000  1.0460000  1
   1404   1405   1408   1409     1  0.0000000  0.0000000  3
   1401   1404   1405   1406     1  0.0000000  1.6038667  3
   1401   1404   1405   1407     1  0.0000000  1.6038667  3
   1461   1460   1458   1464     1  0.0000000  1.0460000  1
   1461   1460   1458   1464     1  0.0000000  0.0000000  3
   1461   1460   1462   1463     1  0.0000000  0.6973333  3
   1459   1458   1460   1461     1  0.0000000  0.6508444  3
   1459   1458   1460   1462     1  0.0000000  1.0460000  1
   1459   1458   1460   1462     1  0.0000000  0.0000000  3
   1459   1458   1464   1465     1  0.0000000  1.6038667  3
   1458   1460   1462   1463     1  0.0000000  1.0460000  1
   1458   1460   1462   1463     1  0.0000000  0.6694400  3
   1455   1454   1456   1457     1  180.0000771  5.6484000  2
   1453   1452   1454   1455     1  180.0000771  5.6484000  2
   1451   1450   1452   1453     1  180.0000771  9.1002000  2
   1451   1450   1452   1454     1  180.0000771  9.1002000  2
   1450   1452   1454   1455     1  180.0000771  5.6484000  2
   1449   1448   1447   1456     1  180.0000771  7.7404000  2
   1449   1448   1450   1451     1  180.0000771  27.8236000  2
   1449   1448   1450   1452     1  180.0000771  27.8236000  2
   1447   1445   1460   1461     1  0.0000000  0.6508444  3
   1447   1448   1450   1451     1  180.0000771  27.8236000  2
   1447   1456   1454   1455     1  180.0000771  5.6484000  2
   1446   1445   1447   1448     1  0.0000000  0.0000000  2
   1446   1445   1447   1456     1  0.0000000  0.0000000  2
   1446   1445   1460   1458     1  0.0000000  0.6508444  3
   1446   1445   1460   1461     1  0.0000000  0.6508444  3
   1446   1445   1460   1462     1  0.0000000  0.6508444  3
   1445   1447   1448   1449     1  180.0000771  7.7404000  2
   1445   1460   1458   1459     1  0.0000000  0.6508444  3
   1445   1460   1462   1463     1  0.0000000  1.0460000  1
   1445   1460   1462   1463     1  0.0000000  0.6694400  3
   1444   1442   1458   1459     1  0.0000000  1.0460000  1
   1444   1442   1458   1459     1  0.0000000  0.0000000  3
   1444   1445   1460   1461     1  0.0000000  1.0460000  1
   1444   1445   1460   1461     1  0.0000000  0.0000000  3
   1443   1442   1444   1445     1  0.0000000  1.6038667  3
   1443   1442   1458   1459     1  0.0000000  0.6508444  3
   1443   1442   1458   1460     1  0.0000000  0.6508444  3
   1443   1442   1458   1464     1  0.0000000  1.0460000  1
   1443   1442   1458   1464     1  0.0000000  0.0000000  3
   1442   1444   1445   1446     1  0.0000000  1.6038667  3
   1442   1458   1460   1461     1  0.0000000  0.6508444  3
   1441   1439   1442   1443     1  0.0000000  0.6508444  3
   1441   1439   1442   1444     1  0.0000000  1.0460000  1
   1441   1439   1442   1444     1  0.0000000  0.0000000  3
   1441   1439   1442   1458     1  0.0000000  0.6508444  3
   1440   1439   1442   1443     1  0.0000000  0.6508444  3
   1440   1439   1442   1444     1  0.0000000  1.0460000  1
   1440   1439   1442   1444     1  0.0000000  0.0000000  3
   1440   1439   1442   1458     1  0.0000000  0.6508444  3
   1439   1442   1458   1459     1  0.0000000  0.6508444  3
   1438   1439   1442   1443     1  0.0000000  1.0460000  1
   1438   1439   1442   1443     1  0.0000000  0.0000000  3
   1435   1438   1439   1440     1  0.0000000  1.6038667  3
   1435   1438   1439   1441     1  0.0000000  1.6038667  3
   1495   1494   1492   1498     1  0.0000000  1.0460000  1
   1495   1494   1492   1498     1  0.0000000  0.0000000  3
   1495   1494   1496   1497     1  0.0000000  0.6973333  3
   1493   1492   1494   1495     1  0.0000000  0.6508444  3
   1493   1492   1494   1496     1  0.0000000  1.0460000  1
   1493   1492   1494   1496     1  0.0000000  0.0000000  3
   1493   1492   1498   1499     1  0.0000000  1.6038667  3
   1492   1494   1496   1497     1  0.0000000  1.0460000  1
   1492   1494   1496   1497     1  0.0000000  0.6694400  3
   1489   1487   1486   1490     1  180.0000771  10.0416000  2
   1488   1487   1486   1490     1  180.0000771  10.0416000  2
   1485   1484   1486   1487     1  180.0000771  6.2760000  2
   1485   1484   1486   1490     1  180.0000771  6.2760000  2
   1484   1486   1487   1488     1  180.0000771  10.0416000  2
   1484   1486   1487   1489     1  180.0000771  10.0416000  2
   1483   1482   1484   1485     1  180.0000771  5.6484000  2
   1481   1482   1484   1485     1  180.0000771  5.6484000  2
   1479   1478   1477   1491     1  180.0000771  7.1128000  2
   1479   1478   1480   1481     1  180.0000771  41.8400000  2
   1477   1475   1494   1495     1  0.0000000  0.6508444  3
   1476   1475   1477   1478     1  0.0000000  0.0000000  2
   1476   1475   1477   1491     1  0.0000000  0.0000000  2
   1476   1475   1494   1492     1  0.0000000  0.6508444  3
   1476   1475   1494   1495     1  0.0000000  0.6508444  3
   1476   1475   1494   1496     1  0.0000000  0.6508444  3
   1475   1477   1478   1479     1  180.0000771  7.1128000  2
   1475   1494   1492   1493     1  0.0000000  0.6508444  3
   1475   1494   1496   1497     1  0.0000000  1.0460000  1
   1475   1494   1496   1497     1  0.0000000  0.6694400  3
   1474   1472   1492   1493     1  0.0000000  1.0460000  1
   1474   1472   1492   1493     1  0.0000000  0.0000000  3
   1474   1475   1494   1495     1  0.0000000  1.0460000  1
   1474   1475   1494   1495     1  0.0000000  0.0000000  3
   1473   1472   1474   1475     1  0.0000000  1.6038667  3
   1473   1472   1492   1493     1  0.0000000  0.6508444  3
   1473   1472   1492   1494     1  0.0000000  0.6508444  3
   1473   1472   1492   1498     1  0.0000000  1.0460000  1
   1473   1472   1492   1498     1  0.0000000  0.0000000  3
   1472   1474   1475   1476     1  0.0000000  1.6038667  3
   1472   1492   1494   1495     1  0.0000000  0.6508444  3
   1471   1469   1472   1473     1  0.0000000  0.6508444  3
   1471   1469   1472   1474     1  0.0000000  1.0460000  1
   1471   1469   1472   1474     1  0.0000000  0.0000000  3
   1471   1469   1472   1492     1  0.0000000  0.6508444  3
   1470   1469   1472   1473     1  0.0000000  0.6508444  3
   1470   1469   1472   1474     1  0.0000000  1.0460000  1
   1470   1469   1472   1474     1  0.0000000  0.0000000  3
   1470   1469   1472   1492     1  0.0000000  0.6508444  3
   1469   1472   1492   1493     1  0.0000000  0.6508444  3
   1468   1469   1472   1473     1  0.0000000  1.0460000  1
   1468   1469   1472   1473     1  0.0000000  0.0000000  3
   1465   1468   1469   1470     1  0.0000000  1.6038667  3
   1465   1468   1469   1471     1  0.0000000  1.6038667  3
   1526   1525   1523   1529     1  0.0000000  1.0460000  1
   1526   1525   1523   1529     1  0.0000000  0.0000000  3
   1526   1525   1527   1528     1  0.0000000  0.6973333  3
   1524   1523   1525   1526     1  0.0000000  0.6508444  3
   1524   1523   1525   1527     1  0.0000000  1.0460000  1
   1524   1523   1525   1527     1  0.0000000  0.0000000  3
   1524   1523   1529   1530     1  0.0000000  1.6038667  3
   1523   1525   1527   1528     1  0.0000000  1.0460000  1
   1523   1525   1527   1528     1  0.0000000  0.6694400  3
   1519   1517   1516   1520     1  180.0000771  10.0416000  2
   1518   1517   1516   1520     1  180.0000771  10.0416000  2
   1515   1514   1516   1517     1  180.0000771  10.6692000  2
   1515   1514   1516   1520     1  180.0000771  10.6692000  2
   1514   1516   1517   1518     1  180.0000771  10.0416000  2
   1514   1516   1517   1519     1  180.0000771  10.0416000  2
   1513   1512   1511   1521     1  180.0000771  7.7404000  2
   1513   1512   1514   1515     1  180.0000771  27.8236000  2
   1513   1512   1514   1516     1  180.0000771  27.8236000  2
   1511   1509   1525   1526     1  0.0000000  0.6508444  3
   1511   1512   1514   1515     1  180.0000771  27.8236000  2
   1510   1509   1511   1512     1  0.0000000  0.0000000  2
   1510   1509   1511   1521     1  0.0000000  0.0000000  2
   1510   1509   1525   1523     1  0.0000000  0.6508444  3
   1510   1509   1525   1526     1  0.0000000  0.6508444  3
   1510   1509   1525   1527     1  0.0000000  0.6508444  3
   1509   1511   1512   1513     1  180.0000771  7.7404000  2
   1509   1525   1523   1524     1  0.0000000  0.6508444  3
   1509   1525   1527   1528     1  0.0000000  1.0460000  1
   1509   1525   1527   1528     1  0.0000000  0.6694400  3
   1508   1506   1523   1524     1  0.0000000  1.0460000  1
   1508   1506   1523   1524     1  0.0000000  0.0000000  3
   1508   1509   1525   1526     1  0.0000000  1.0460000  1
   1508   1509   1525   1526     1  0.0000000  0.0000000  3
   1507   1506   1508   1509     1  0.0000000  1.6038667  3
   1507   1506   1523   1524     1  0.0000000  0.6508444  3
   1507   1506   1523   1525     1  0.0000000  0.6508444  3
   1507   1506   1523   1529     1  0.0000000  1.0460000  1
   1507   1506   1523   1529     1  0.0000000  0.0000000  3
   1506   1508   1509   1510     1  0.0000000  1.6038667  3
   1506   1523   1525   1526     1  0.0000000  0.6508444  3
   1505   1503   1506   1507     1  0.0000000  0.6508444  3
   1505   1503   1506   1508     1  0.0000000  1.0460000  1
   1505   1503   1506   1508     1  0.0000000  0.0000000  3
   1505   1503   1506   1523     1  0.0000000  0.6508444  3
   1504   1503   1506   1507     1  0.0000000  0.6508444  3
   1504   1503   1506   1508     1  0.0000000  1.0460000  1
   1504   1503   1506   1508     1  0.0000000  0.0000000  3
   1504   1503   1506   1523     1  0.0000000  0.6508444  3
   1503   1506   1523   1524     1  0.0000000  0.6508444  3
   1502   1503   1506   1507     1  0.0000000  1.0460000  1
   1502   1503   1506   1507     1  0.0000000  0.0000000  3
   1499   1502   1503   1504     1  0.0000000  1.6038667  3
   1499   1502   1503   1505     1  0.0000000  1.6038667  3
   1560   1559   1557   1563     1  0.0000000  1.0460000  1
   1560   1559   1557   1563     1  0.0000000  0.0000000  3
   1560   1559   1561   1562     1  0.0000000  0.6973333  3
   1558   1557   1559   1560     1  0.0000000  0.6508444  3
   1558   1557   1559   1561     1  0.0000000  1.0460000  1
   1558   1557   1559   1561     1  0.0000000  0.0000000  3
   1558   1557   1563   1564     1  0.0000000  1.6038667  3
   1557   1559   1561   1562     1  0.0000000  1.0460000  1
   1557   1559   1561   1562     1  0.0000000  0.6694400  3
   1554   1552   1551   1555     1  180.0000771  10.0416000  2
   1553   1552   1551   1555     1  180.0000771  10.0416000  2
   1550   1549   1551   1552     1  180.0000771  6.2760000  2
   1550   1549   1551   1555     1  180.0000771  6.2760000  2
   1549   1551   1552   1553     1  180.0000771  10.0416000  2
   1549   1551   1552   1554     1  180.0000771  10.0416000  2
   1548   1547   1549   1550     1  180.0000771  5.6484000  2
   1546   1547   1549   1550     1  180.0000771  5.6484000  2
   1544   1543   1542   1556     1  180.0000771  7.1128000  2
   1544   1543   1545   1546     1  180.0000771  41.8400000  2
   1542   1540   1559   1560     1  0.0000000  0.6508444  3
   1541   1540   1542   1543     1  0.0000000  0.0000000  2
   1541   1540   1542   1556     1  0.0000000  0.0000000  2
   1541   1540   1559   1557     1  0.0000000  0.6508444  3
   1541   1540   1559   1560     1  0.0000000  0.6508444  3
   1541   1540   1559   1561     1  0.0000000  0.6508444  3
   1540   1542   1543   1544     1  180.0000771  7.1128000  2
   1540   1559   1557   1558     1  0.0000000  0.6508444  3
   1540   1559   1561   1562     1  0.0000000  1.0460000  1
   1540   1559   1561   1562     1  0.0000000  0.6694400  3
   1539   1537   1557   1558     1  0.0000000  1.0460000  1
   1539   1537   1557   1558     1  0.0000000  0.0000000  3
   1539   1540   1559   1560     1  0.0000000  1.0460000  1
   1539   1540   1559   1560     1  0.0000000  0.0000000  3
   1538   1537   1539   1540     1  0.0000000  1.6038667  3
   1538   1537   1557   1558     1  0.0000000  0.6508444  3
   1538   1537   1557   1559     1  0.0000000  0.6508444  3
   1538   1537   1557   1563     1  0.0000000  1.0460000  1
   1538   1537   1557   1563     1  0.0000000  0.0000000  3
   1537   1539   1540   1541     1  0.0000000  1.6038667  3
   1537   1557   1559   1560     1  0.0000000  0.6508444  3
   1536   1534   1537   1538     1  0.0000000  0.6508444  3
   1536   1534   1537   1539     1  0.0000000  1.0460000  1
   1536   1534   1537   1539     1  0.0000000  0.0000000  3
   1536   1534   1537   1557     1  0.0000000  0.6508444  3
   1535   1534   1537   1538     1  0.0000000  0.6508444  3
   1535   1534   1537   1539     1  0.0000000  1.0460000  1
   1535   1534   1537   1539     1  0.0000000  0.0000000  3
   1535   1534   1537   1557     1  0.0000000  0.6508444  3
   1534   1537   1557   1558     1  0.0000000  0.6508444  3
   1533   1534   1537   1538     1  0.0000000  1.0460000  1
   1533   1534   1537   1538     1  0.0000000  0.0000000  3
   1530   1533   1534   1535     1  0.0000000  1.6038667  3
   1530   1533   1534   1536     1  0.0000000  1.6038667  3
   1594   1593   1591   1597     1  0.0000000  1.0460000  1
   1594   1593   1591   1597     1  0.0000000  0.0000000  3
   1594   1593   1595   1596     1  0.0000000  0.6973333  3
   1592   1591   1593   1594     1  0.0000000  0.6508444  3
   1592   1591   1593   1595     1  0.0000000  1.0460000  1
   1592   1591   1593   1595     1  0.0000000  0.0000000  3
   1592   1591   1597   1598     1  0.0000000  1.6038667  3
   1591   1593   1595   1596     1  0.0000000  1.0460000  1
   1591   1593   1595   1596     1  0.0000000  0.6694400  3
   1588   1586   1585   1589     1  180.0000771  10.0416000  2
   1587   1586   1585   1589     1  180.0000771  10.0416000  2
   1584   1583   1585   1586     1  180.0000771  6.2760000  2
   1584   1583   1585   1589     1  180.0000771  6.2760000  2
   1583   1585   1586   1587     1  180.0000771  10.0416000  2
   1583   1585   1586   1588     1  180.0000771  10.0416000  2
   1582   1581   1583   1584     1  180.0000771  5.6484000  2
   1580   1581   1583   1584     1  180.0000771  5.6484000  2
   1578   1577   1576   1590     1  180.0000771  7.1128000  2
   1578   1577   1579   1580     1  180.0000771  41.8400000  2
   1576   1574   1593   1594     1  0.0000000  0.6508444  3
   1575   1574   1576   1577     1  0.0000000  0.0000000  2
   1575   1574   1576   1590     1  0.0000000  0.0000000  2
   1575   1574   1593   1591     1  0.0000000  0.6508444  3
   1575   1574   1593   1594     1  0.0000000  0.6508444  3
   1575   1574   1593   1595     1  0.0000000  0.6508444  3
   1574   1576   1577   1578     1  180.0000771  7.1128000  2
   1574   1593   1591   1592     1  0.0000000  0.6508444  3
   1574   1593   1595   1596     1  0.0000000  1.0460000  1
   1574   1593   1595   1596     1  0.0000000  0.6694400  3
   1573   1571   1591   1592     1  0.0000000  1.0460000  1
   1573   1571   1591   1592     1  0.0000000  0.0000000  3
   1573   1574   1593   1594     1  0.0000000  1.0460000  1
   1573   1574   1593   1594     1  0.0000000  0.0000000  3
   1572   1571   1573   1574     1  0.0000000  1.6038667  3
   1572   1571   1591   1592     1  0.0000000  0.6508444  3
   1572   1571   1591   1593     1  0.0000000  0.6508444  3
   1572   1571   1591   1597     1  0.0000000  1.0460000  1
   1572   1571   1591   1597     1  0.0000000  0.0000000  3
   1571   1573   1574   1575     1  0.0000000  1.6038667  3
   1571   1591   1593   1594     1  0.0000000  0.6508444  3
   1570   1568   1571   1572     1  0.0000000  0.6508444  3
   1570   1568   1571   1573     1  0.0000000  1.0460000  1
   1570   1568   1571   1573     1  0.0000000  0.0000000  3
   1570   1568   1571   1591     1  0.0000000  0.6508444  3
   1569   1568   1571   1572     1  0.0000000  0.6508444  3
   1569   1568   1571   1573     1  0.0000000  1.0460000  1
   1569   1568   1571   1573     1  0.0000000  0.0000000  3
   1569   1568   1571   1591     1  0.0000000  0.6508444  3
   1568   1571   1591   1592     1  0.0000000  0.6508444  3
   1567   1568   1571   1572     1  0.0000000  1.0460000  1
   1567   1568   1571   1572     1  0.0000000  0.0000000  3
   1564   1567   1568   1569     1  0.0000000  1.6038667  3
   1564   1567   1568   1570     1  0.0000000  1.6038667  3
   1625   1624   1622   1628     1  0.0000000  1.0460000  1
   1625   1624   1622   1628     1  0.0000000  0.0000000  3
   1625   1624   1626   1627     1  0.0000000  0.6973333  3
   1623   1622   1624   1625     1  0.0000000  0.6508444  3
   1623   1622   1624   1626     1  0.0000000  1.0460000  1
   1623   1622   1624   1626     1  0.0000000  0.0000000  3
   1623   1622   1628   1629     1  0.0000000  1.6038667  3
   1622   1624   1626   1627     1  0.0000000  1.0460000  1
   1622   1624   1626   1627     1  0.0000000  0.6694400  3
   1618   1616   1615   1619     1  180.0000771  10.0416000  2
   1617   1616   1615   1619     1  180.0000771  10.0416000  2
   1614   1613   1615   1616     1  180.0000771  10.6692000  2
   1614   1613   1615   1619     1  180.0000771  10.6692000  2
   1613   1615   1616   1617     1  180.0000771  10.0416000  2
   1613   1615   1616   1618     1  180.0000771  10.0416000  2
   1612   1611   1610   1620     1  180.0000771  7.7404000  2
   1612   1611   1613   1614     1  180.0000771  27.8236000  2
   1612   1611   1613   1615     1  180.0000771  27.8236000  2
   1610   1608   1624   1625     1  0.0000000  0.6508444  3
   1610   1611   1613   1614     1  180.0000771  27.8236000  2
   1609   1608   1610   1611     1  0.0000000  0.0000000  2
   1609   1608   1610   1620     1  0.0000000  0.0000000  2
   1609   1608   1624   1622     1  0.0000000  0.6508444  3
   1609   1608   1624   1625     1  0.0000000  0.6508444  3
   1609   1608   1624   1626     1  0.0000000  0.6508444  3
   1608   1610   1611   1612     1  180.0000771  7.7404000  2
   1608   1624   1622   1623     1  0.0000000  0.6508444  3
   1608   1624   1626   1627     1  0.0000000  1.0460000  1
   1608   1624   1626   1627     1  0.0000000  0.6694400  3
   1607   1605   1622   1623     1  0.0000000  1.0460000  1
   1607   1605   1622   1623     1  0.0000000  0.0000000  3
   1607   1608   1624   1625     1  0.0000000  1.0460000  1
   1607   1608   1624   1625     1  0.0000000  0.0000000  3
   1606   1605   1607   1608     1  0.0000000  1.6038667  3
   1606   1605   1622   1623     1  0.0000000  0.6508444  3
   1606   1605   1622   1624     1  0.0000000  0.6508444  3
   1606   1605   1622   1628     1  0.0000000  1.0460000  1
   1606   1605   1622   1628     1  0.0000000  0.0000000  3
   1605   1607   1608   1609     1  0.0000000  1.6038667  3
   1605   1622   1624   1625     1  0.0000000  0.6508444  3
   1604   1602   1605   1606     1  0.0000000  0.6508444  3
   1604   1602   1605   1607     1  0.0000000  1.0460000  1
   1604   1602   1605   1607     1  0.0000000  0.0000000  3
   1604   1602   1605   1622     1  0.0000000  0.6508444  3
   1603   1602   1605   1606     1  0.0000000  0.6508444  3
   1603   1602   1605   1607     1  0.0000000  1.0460000  1
   1603   1602   1605   1607     1  0.0000000  0.0000000  3
   1603   1602   1605   1622     1  0.0000000  0.6508444  3
   1602   1605   1622   1623     1  0.0000000  0.6508444  3
   1601   1602   1605   1606     1  0.0000000  1.0460000  1
   1601   1602   1605   1606     1  0.0000000  0.0000000  3
   1598   1601   1602   1603     1  0.0000000  1.6038667  3
   1598   1601   1602   1604     1  0.0000000  1.6038667  3
   1658   1657   1655   1661     1  0.0000000  1.0460000  1
   1658   1657   1655   1661     1  0.0000000  0.0000000  3
   1658   1657   1659   1660     1  0.0000000  0.6973333  3
   1656   1655   1657   1658     1  0.0000000  0.6508444  3
   1656   1655   1657   1659     1  0.0000000  1.0460000  1
   1656   1655   1657   1659     1  0.0000000  0.0000000  3
   1656   1655   1661   1662     1  0.0000000  1.6038667  3
   1655   1657   1659   1660     1  0.0000000  1.0460000  1
   1655   1657   1659   1660     1  0.0000000  0.6694400  3
   1652   1651   1653   1654     1  180.0000771  28.4512000  2
   1649   1647   1646   1650     1  180.0000771  10.0416000  2
   1648   1647   1646   1650     1  180.0000771  10.0416000  2
   1646   1650   1651   1652     1  180.0000771  28.4512000  2
   1645   1646   1647   1648     1  180.0000771  10.0416000  2
   1645   1646   1647   1649     1  180.0000771  10.0416000  2
   1643   1642   1641   1654     1  180.0000771  7.1128000  2
   1643   1642   1644   1645     1  180.0000771  41.8400000  2
   1641   1639   1657   1658     1  0.0000000  0.6508444  3
   1640   1639   1641   1642     1  0.0000000  0.0000000  2
   1640   1639   1641   1654     1  0.0000000  0.0000000  2
   1640   1639   1657   1655     1  0.0000000  0.6508444  3
   1640   1639   1657   1658     1  0.0000000  0.6508444  3
   1640   1639   1657   1659     1  0.0000000  0.6508444  3
   1639   1641   1642   1643     1  180.0000771  7.1128000  2
   1639   1657   1655   1656     1  0.0000000  0.6508444  3
   1639   1657   1659   1660     1  0.0000000  1.0460000  1
   1639   1657   1659   1660     1  0.0000000  0.6694400  3
   1638   1636   1655   1656     1  0.0000000  1.0460000  1
   1638   1636   1655   1656     1  0.0000000  0.0000000  3
   1638   1639   1657   1658     1  0.0000000  1.0460000  1
   1638   1639   1657   1658     1  0.0000000  0.0000000  3
   1637   1636   1638   1639     1  0.0000000  1.6038667  3
   1637   1636   1655   1656     1  0.0000000  0.6508444  3
   1637   1636   1655   1657     1  0.0000000  0.6508444  3
   1637   1636   1655   1661     1  0.0000000  1.0460000  1
   1637   1636   1655   1661     1  0.0000000  0.0000000  3
   1636   1638   1639   1640     1  0.0000000  1.6038667  3
   1636   1655   1657   1658     1  0.0000000  0.6508444  3
   1635   1633   1636   1637     1  0.0000000  0.6508444  3
   1635   1633   1636   1638     1  0.0000000  1.0460000  1
   1635   1633   1636   1638     1  0.0000000  0.0000000  3
   1635   1633   1636   1655     1  0.0000000  0.6508444  3
   1634   1633   1636   1637     1  0.0000000  0.6508444  3
   1634   1633   1636   1638     1  0.0000000  1.0460000  1
   1634   1633   1636   1638     1  0.0000000  0.0000000  3
   1634   1633   1636   1655     1  0.0000000  0.6508444  3
   1633   1636   1655   1656     1  0.0000000  0.6508444  3
   1632   1633   1636   1637     1  0.0000000  1.0460000  1
   1632   1633   1636   1637     1  0.0000000  0.0000000  3
   1629   1632   1633   1634     1  0.0000000  1.6038667  3
   1629   1632   1633   1635     1  0.0000000  1.6038667  3
   1689   1688   1686   1692     1  0.0000000  1.0460000  1
   1689   1688   1686   1692     1  0.0000000  0.0000000  3
   1689   1688   1690   1691     1  0.0000000  0.6973333  3
   1687   1686   1688   1689     1  0.0000000  0.6508444  3
   1687   1686   1688   1690     1  0.0000000  1.0460000  1
   1687   1686   1688   1690     1  0.0000000  0.0000000  3
   1687   1686   1692   1693     1  0.0000000  1.6038667  3
   1686   1688   1690   1691     1  0.0000000  1.0460000  1
   1686   1688   1690   1691     1  0.0000000  0.6694400  3
   1682   1680   1679   1683     1  180.0000771  10.0416000  2
   1681   1680   1679   1683     1  180.0000771  10.0416000  2
   1678   1677   1679   1680     1  180.0000771  10.6692000  2
   1678   1677   1679   1683     1  180.0000771  10.6692000  2
   1677   1679   1680   1681     1  180.0000771  10.0416000  2
   1677   1679   1680   1682     1  180.0000771  10.0416000  2
   1676   1675   1674   1684     1  180.0000771  7.7404000  2
   1676   1675   1677   1678     1  180.0000771  27.8236000  2
   1676   1675   1677   1679     1  180.0000771  27.8236000  2
   1674   1672   1688   1689     1  0.0000000  0.6508444  3
   1674   1675   1677   1678     1  180.0000771  27.8236000  2
   1673   1672   1674   1675     1  0.0000000  0.0000000  2
   1673   1672   1674   1684     1  0.0000000  0.0000000  2
   1673   1672   1688   1686     1  0.0000000  0.6508444  3
   1673   1672   1688   1689     1  0.0000000  0.6508444  3
   1673   1672   1688   1690     1  0.0000000  0.6508444  3
   1672   1674   1675   1676     1  180.0000771  7.7404000  2
   1672   1688   1686   1687     1  0.0000000  0.6508444  3
   1672   1688   1690   1691     1  0.0000000  1.0460000  1
   1672   1688   1690   1691     1  0.0000000  0.6694400  3
   1671   1669   1686   1687     1  0.0000000  1.0460000  1
   1671   1669   1686   1687     1  0.0000000  0.0000000  3
   1671   1672   1688   1689     1  0.0000000  1.0460000  1
   1671   1672   1688   1689     1  0.0000000  0.0000000  3
   1670   1669   1671   1672     1  0.0000000  1.6038667  3
   1670   1669   1686   1687     1  0.0000000  0.6508444  3
   1670   1669   1686   1688     1  0.0000000  0.6508444  3
   1670   1669   1686   1692     1  0.0000000  1.0460000  1
   1670   1669   1686   1692     1  0.0000000  0.0000000  3
   1669   1671   1672   1673     1  0.0000000  1.6038667  3
   1669   1686   1688   1689     1  0.0000000  0.6508444  3
   1668   1666   1669   1670     1  0.0000000  0.6508444  3
   1668   1666   1669   1671     1  0.0000000  1.0460000  1
   1668   1666   1669   1671     1  0.0000000  0.0000000  3
   1668   1666   1669   1686     1  0.0000000  0.6508444  3
   1667   1666   1669   1670     1  0.0000000  0.6508444  3
   1667   1666   1669   1671     1  0.0000000  1.0460000  1
   1667   1666   1669   1671     1  0.0000000  0.0000000  3
   1667   1666   1669   1686     1  0.0000000  0.6508444  3
   1666   1669   1686   1687     1  0.0000000  0.6508444  3
   1665   1666   1669   1670     1  0.0000000  1.0460000  1
   1665   1666   1669   1670     1  0.0000000  0.0000000  3
   1662   1665   1666   1667     1  0.0000000  1.6038667  3
   1662   1665   1666   1668     1  0.0000000  1.6038667  3
   1722   1721   1719   1725     1  0.0000000  1.0460000  1
   1722   1721   1719   1725     1  0.0000000  0.0000000  3
   1722   1721   1723   1724     1  0.0000000  0.6973333  3
   1720   1719   1721   1722     1  0.0000000  0.6508444  3
   1720   1719   1721   1723     1  0.0000000  1.0460000  1
   1720   1719   1721   1723     1  0.0000000  0.0000000  3
   1720   1719   1725   1726     1  0.0000000  1.6038667  3
   1719   1721   1723   1724     1  0.0000000  1.0460000  1
   1719   1721   1723   1724     1  0.0000000  0.6694400  3
   1716   1715   1717   1718     1  180.0000771  28.4512000  2
   1713   1711   1710   1714     1  180.0000771  10.0416000  2
   1712   1711   1710   1714     1  180.0000771  10.0416000  2
   1710   1714   1715   1716     1  180.0000771  28.4512000  2
   1709   1710   1711   1712     1  180.0000771  10.0416000  2
   1709   1710   1711   1713     1  180.0000771  10.0416000  2
   1707   1706   1705   1718     1  180.0000771  7.1128000  2
   1707   1706   1708   1709     1  180.0000771  41.8400000  2
   1705   1703   1721   1722     1  0.0000000  0.6508444  3
   1704   1703   1705   1706     1  0.0000000  0.0000000  2
   1704   1703   1705   1718     1  0.0000000  0.0000000  2
   1704   1703   1721   1719     1  0.0000000  0.6508444  3
   1704   1703   1721   1722     1  0.0000000  0.6508444  3
   1704   1703   1721   1723     1  0.0000000  0.6508444  3
   1703   1705   1706   1707     1  180.0000771  7.1128000  2
   1703   1721   1719   1720     1  0.0000000  0.6508444  3
   1703   1721   1723   1724     1  0.0000000  1.0460000  1
   1703   1721   1723   1724     1  0.0000000  0.6694400  3
   1702   1700   1719   1720     1  0.0000000  1.0460000  1
   1702   1700   1719   1720     1  0.0000000  0.0000000  3
   1702   1703   1721   1722     1  0.0000000  1.0460000  1
   1702   1703   1721   1722     1  0.0000000  0.0000000  3
   1701   1700   1702   1703     1  0.0000000  1.6038667  3
   1701   1700   1719   1720     1  0.0000000  0.6508444  3
   1701   1700   1719   1721     1  0.0000000  0.6508444  3
   1701   1700   1719   1725     1  0.0000000  1.0460000  1
   1701   1700   1719   1725     1  0.0000000  0.0000000  3
   1700   1702   1703   1704     1  0.0000000  1.6038667  3
   1700   1719   1721   1722     1  0.0000000  0.6508444  3
   1699   1697   1700   1701     1  0.0000000  0.6508444  3
   1699   1697   1700   1702     1  0.0000000  1.0460000  1
   1699   1697   1700   1702     1  0.0000000  0.0000000  3
   1699   1697   1700   1719     1  0.0000000  0.6508444  3
   1698   1697   1700   1701     1  0.0000000  0.6508444  3
   1698   1697   1700   1702     1  0.0000000  1.0460000  1
   1698   1697   1700   1702     1  0.0000000  0.0000000  3
   1698   1697   1700   1719     1  0.0000000  0.6508444  3
   1697   1700   1719   1720     1  0.0000000  0.6508444  3
   1696   1697   1700   1701     1  0.0000000  1.0460000  1
   1696   1697   1700   1701     1  0.0000000  0.0000000  3
   1693   1696   1697   1698     1  0.0000000  1.6038667  3
   1693   1696   1697   1699     1  0.0000000  1.6038667  3
   1756   1755   1753   1759     1  0.0000000  1.0460000  1
   1756   1755   1753   1759     1  0.0000000  0.0000000  3
   1756   1755   1757   1758     1  0.0000000  0.6973333  3
   1754   1753   1755   1756     1  0.0000000  0.6508444  3
   1754   1753   1755   1757     1  0.0000000  1.0460000  1
   1754   1753   1755   1757     1  0.0000000  0.0000000  3
   1754   1753   1759   1760     1  0.0000000  1.6038667  3
   1753   1755   1757   1758     1  0.0000000  1.0460000  1
   1753   1755   1757   1758     1  0.0000000  0.6694400  3
   1750   1748   1747   1751     1  180.0000771  10.0416000  2
   1749   1748   1747   1751     1  180.0000771  10.0416000  2
   1746   1745   1747   1748     1  180.0000771  6.2760000  2
   1746   1745   1747   1751     1  180.0000771  6.2760000  2
   1745   1747   1748   1749     1  180.0000771  10.0416000  2
   1745   1747   1748   1750     1  180.0000771  10.0416000  2
   1744   1743   1745   1746     1  180.0000771  5.6484000  2
   1742   1743   1745   1746     1  180.0000771  5.6484000  2
   1740   1739   1738   1752     1  180.0000771  7.1128000  2
   1740   1739   1741   1742     1  180.0000771  41.8400000  2
   1738   1736   1755   1756     1  0.0000000  0.6508444  3
   1737   1736   1738   1739     1  0.0000000  0.0000000  2
   1737   1736   1738   1752     1  0.0000000  0.0000000  2
   1737   1736   1755   1753     1  0.0000000  0.6508444  3
   1737   1736   1755   1756     1  0.0000000  0.6508444  3
   1737   1736   1755   1757     1  0.0000000  0.6508444  3
   1736   1738   1739   1740     1  180.0000771  7.1128000  2
   1736   1755   1753   1754     1  0.0000000  0.6508444  3
   1736   1755   1757   1758     1  0.0000000  1.0460000  1
   1736   1755   1757   1758     1  0.0000000  0.6694400  3
   1735   1733   1753   1754     1  0.0000000  1.0460000  1
   1735   1733   1753   1754     1  0.0000000  0.0000000  3
   1735   1736   1755   1756     1  0.0000000  1.0460000  1
   1735   1736   1755   1756     1  0.0000000  0.0000000  3
   1734   1733   1735   1736     1  0.0000000  1.6038667  3
   1734   1733   1753   1754     1  0.0000000  0.6508444  3
   1734   1733   1753   1755     1  0.0000000  0.6508444  3
   1734   1733   1753   1759     1  0.0000000  1.0460000  1
   1734   1733   1753   1759     1  0.0000000  0.0000000  3
   1733   1735   1736   1737     1  0.0000000  1.6038667  3
   1733   1753   1755   1756     1  0.0000000  0.6508444  3
   1732   1730   1733   1734     1  0.0000000  0.6508444  3
   1732   1730   1733   1735     1  0.0000000  1.0460000  1
   1732   1730   1733   1735     1  0.0000000  0.0000000  3
   1732   1730   1733   1753     1  0.0000000  0.6508444  3
   1731   1730   1733   1734     1  0.0000000  0.6508444  3
   1731   1730   1733   1735     1  0.0000000  1.0460000  1
   1731   1730   1733   1735     1  0.0000000  0.0000000  3
   1731   1730   1733   1753     1  0.0000000  0.6508444  3
   1730   1733   1753   1754     1  0.0000000  0.6508444  3
   1729   1730   1733   1734     1  0.0000000  1.0460000  1
   1729   1730   1733   1734     1  0.0000000  0.0000000  3
   1726   1729   1730   1731     1  0.0000000  1.6038667  3
   1726   1729   1730   1732     1  0.0000000  1.6038667  3
   1790   1789   1787   1793     1  0.0000000  1.0460000  1
   1790   1789   1787   1793     1  0.0000000  0.0000000  3
   1790   1789   1791   1792     1  0.0000000  0.6973333  3
   1788   1787   1789   1790     1  0.0000000  0.6508444  3
   1788   1787   1789   1791     1  0.0000000  1.0460000  1
   1788   1787   1789   1791     1  0.0000000  0.0000000  3
   1788   1787   1793   1794     1  0.0000000  1.6038667  3
   1787   1789   1791   1792     1  0.0000000  1.0460000  1
   1787   1789   1791   1792     1  0.0000000  0.6694400  3
   1784   1782   1781   1785     1  180.0000771  10.0416000  2
   1783   1782   1781   1785     1  180.0000771  10.0416000  2
   1780   1779   1781   1782     1  180.0000771  6.2760000  2
   1780   1779   1781   1785     1  180.0000771  6.2760000  2
   1779   1781   1782   1783     1  180.0000771  10.0416000  2
   1779   1781   1782   1784     1  180.0000771  10.0416000  2
   1778   1777   1779   1780     1  180.0000771  5.6484000  2
   1776   1777   1779   1780     1  180.0000771  5.6484000  2
   1774   1773   1772   1786     1  180.0000771  7.1128000  2
   1774   1773   1775   1776     1  180.0000771  41.8400000  2
   1772   1770   1789   1790     1  0.0000000  0.6508444  3
   1771   1770   1772   1773     1  0.0000000  0.0000000  2
   1771   1770   1772   1786     1  0.0000000  0.0000000  2
   1771   1770   1789   1787     1  0.0000000  0.6508444  3
   1771   1770   1789   1790     1  0.0000000  0.6508444  3
   1771   1770   1789   1791     1  0.0000000  0.6508444  3
   1770   1772   1773   1774     1  180.0000771  7.1128000  2
   1770   1789   1787   1788     1  0.0000000  0.6508444  3
   1770   1789   1791   1792     1  0.0000000  1.0460000  1
   1770   1789   1791   1792     1  0.0000000  0.6694400  3
   1769   1767   1787   1788     1  0.0000000  1.0460000  1
   1769   1767   1787   1788     1  0.0000000  0.0000000  3
   1769   1770   1789   1790     1  0.0000000  1.0460000  1
   1769   1770   1789   1790     1  0.0000000  0.0000000  3
   1768   1767   1769   1770     1  0.0000000  1.6038667  3
   1768   1767   1787   1788     1  0.0000000  0.6508444  3
   1768   1767   1787   1789     1  0.0000000  0.6508444  3
   1768   1767   1787   1793     1  0.0000000  1.0460000  1
   1768   1767   1787   1793     1  0.0000000  0.0000000  3
   1767   1769   1770   1771     1  0.0000000  1.6038667  3
   1767   1787   1789   1790     1  0.0000000  0.6508444  3
   1766   1764   1767   1768     1  0.0000000  0.6508444  3
   1766   1764   1767   1769     1  0.0000000  1.0460000  1
   1766   1764   1767   1769     1  0.0000000  0.0000000  3
   1766   1764   1767   1787     1  0.0000000  0.6508444  3
   1765   1764   1767   1768     1  0.0000000  0.6508444  3
   1765   1764   1767   1769     1  0.0000000  1.0460000  1
   1765   1764   1767   1769     1  0.0000000  0.0000000  3
   1765   1764   1767   1787     1  0.0000000  0.6508444  3
   1764   1767   1787   1788     1  0.0000000  0.6508444  3
   1763   1764   1767   1768     1  0.0000000  1.0460000  1
   1763   1764   1767   1768     1  0.0000000  0.0000000  3
   1760   1763   1764   1765     1  0.0000000  1.6038667  3
   1760   1763   1764   1766     1  0.0000000  1.6038667  3
   1821   1820   1818   1824     1  0.0000000  1.0460000  1
   1821   1820   1818   1824     1  0.0000000  0.0000000  3
   1821   1820   1822   1823     1  0.0000000  0.6973333  3
   1819   1818   1820   1821     1  0.0000000  0.6508444  3
   1819   1818   1820   1822     1  0.0000000  1.0460000  1
   1819   1818   1820   1822     1  0.0000000  0.0000000  3
   1819   1818   1824   1825     1  0.0000000  1.6038667  3
   1818   1820   1822   1823     1  0.0000000  1.0460000  1
   1818   1820   1822   1823     1  0.0000000  0.6694400  3
   1814   1812   1811   1815     1  180.0000771  10.0416000  2
   1813   1812   1811   1815     1  180.0000771  10.0416000  2
   1810   1809   1811   1812     1  180.0000771  10.6692000  2
   1810   1809   1811   1815     1  180.0000771  10.6692000  2
   1809   1811   1812   1813     1  180.0000771  10.0416000  2
   1809   1811   1812   1814     1  180.0000771  10.0416000  2
   1808   1807   1806   1816     1  180.0000771  7.7404000  2
   1808   1807   1809   1810     1  180.0000771  27.8236000  2
   1808   1807   1809   1811     1  180.0000771  27.8236000  2
   1806   1804   1820   1821     1  0.0000000  0.6508444  3
   1806   1807   1809   1810     1  180.0000771  27.8236000  2
   1805   1804   1806   1807     1  0.0000000  0.0000000  2
   1805   1804   1806   1816     1  0.0000000  0.0000000  2
   1805   1804   1820   1818     1  0.0000000  0.6508444  3
   1805   1804   1820   1821     1  0.0000000  0.6508444  3
   1805   1804   1820   1822     1  0.0000000  0.6508444  3
   1804   1806   1807   1808     1  180.0000771  7.7404000  2
   1804   1820   1818   1819     1  0.0000000  0.6508444  3
   1804   1820   1822   1823     1  0.0000000  1.0460000  1
   1804   1820   1822   1823     1  0.0000000  0.6694400  3
   1803   1801   1818   1819     1  0.0000000  1.0460000  1
   1803   1801   1818   1819     1  0.0000000  0.0000000  3
   1803   1804   1820   1821     1  0.0000000  1.0460000  1
   1803   1804   1820   1821     1  0.0000000  0.0000000  3
   1802   1801   1803   1804     1  0.0000000  1.6038667  3
   1802   1801   1818   1819     1  0.0000000  0.6508444  3
   1802   1801   1818   1820     1  0.0000000  0.6508444  3
   1802   1801   1818   1824     1  0.0000000  1.0460000  1
   1802   1801   1818   1824     1  0.0000000  0.0000000  3
   1801   1803   1804   1805     1  0.0000000  1.6038667  3
   1801   1818   1820   1821     1  0.0000000  0.6508444  3
   1800   1798   1801   1802     1  0.0000000  0.6508444  3
   1800   1798   1801   1803     1  0.0000000  1.0460000  1
   1800   1798   1801   1803     1  0.0000000  0.0000000  3
   1800   1798   1801   1818     1  0.0000000  0.6508444  3
   1799   1798   1801   1802     1  0.0000000  0.6508444  3
   1799   1798   1801   1803     1  0.0000000  1.0460000  1
   1799   1798   1801   1803     1  0.0000000  0.0000000  3
   1799   1798   1801   1818     1  0.0000000  0.6508444  3
   1798   1801   1818   1819     1  0.0000000  0.6508444  3
   1797   1798   1801   1802     1  0.0000000  1.0460000  1
   1797   1798   1801   1802     1  0.0000000  0.0000000  3
   1794   1797   1798   1799     1  0.0000000  1.6038667  3
   1794   1797   1798   1800     1  0.0000000  1.6038667  3
   1854   1853   1851   1857     1  0.0000000  1.0460000  1
   1854   1853   1851   1857     1  0.0000000  0.0000000  3
   1854   1853   1855   1856     1  0.0000000  0.6973333  3
   1852   1851   1853   1854     1  0.0000000  0.6508444  3
   1852   1851   1853   1855     1  0.0000000  1.0460000  1
   1852   1851   1853   1855     1  0.0000000  0.0000000  3
   1852   1851   1857   1858     1  0.0000000  1.6038667  3
   1851   1853   1855   1856     1  0.0000000  1.0460000  1
   1851   1853   1855   1856     1  0.0000000  0.6694400  3
   1848   1847   1849   1850     1  180.0000771  28.4512000  2
   1845   1843   1842   1846     1  180.0000771  10.0416000  2
   1844   1843   1842   1846     1  180.0000771  10.0416000  2
   1842   1846   1847   1848     1  180.0000771  28.4512000  2
   1841   1842   1843   1844     1  180.0000771  10.0416000  2
   1841   1842   1843   1845     1  180.0000771  10.0416000  2
   1839   1838   1837   1850     1  180.0000771  7.1128000  2
   1839   1838   1840   1841     1  180.0000771  41.8400000  2
   1837   1835   1853   1854     1  0.0000000  0.6508444  3
   1836   1835   1837   1838     1  0.0000000  0.0000000  2
   1836   1835   1837   1850     1  0.0000000  0.0000000  2
   1836   1835   1853   1851     1  0.0000000  0.6508444  3
   1836   1835   1853   1854     1  0.0000000  0.6508444  3
   1836   1835   1853   1855     1  0.0000000  0.6508444  3
   1835   1837   1838   1839     1  180.0000771  7.1128000  2
   1835   1853   1851   1852     1  0.0000000  0.6508444  3
   1835   1853   1855   1856     1  0.0000000  1.0460000  1
   1835   1853   1855   1856     1  0.0000000  0.6694400  3
   1834   1832   1851   1852     1  0.0000000  1.0460000  1
   1834   1832   1851   1852     1  0.0000000  0.0000000  3
   1834   1835   1853   1854     1  0.0000000  1.0460000  1
   1834   1835   1853   1854     1  0.0000000  0.0000000  3
   1833   1832   1834   1835     1  0.0000000  1.6038667  3
   1833   1832   1851   1852     1  0.0000000  0.6508444  3
   1833   1832   1851   1853     1  0.0000000  0.6508444  3
   1833   1832   1851   1857     1  0.0000000  1.0460000  1
   1833   1832   1851   1857     1  0.0000000  0.0000000  3
   1832   1834   1835   1836     1  0.0000000  1.6038667  3
   1832   1851   1853   1854     1  0.0000000  0.6508444  3
   1831   1829   1832   1833     1  0.0000000  0.6508444  3
   1831   1829   1832   1834     1  0.0000000  1.0460000  1
   1831   1829   1832   1834     1  0.0000000  0.0000000  3
   1831   1829   1832   1851     1  0.0000000  0.6508444  3
   1830   1829   1832   1833     1  0.0000000  0.6508444  3
   1830   1829   1832   1834     1  0.0000000  1.0460000  1
   1830   1829   1832   1834     1  0.0000000  0.0000000  3
   1830   1829   1832   1851     1  0.0000000  0.6508444  3
   1829   1832   1851   1852     1  0.0000000  0.6508444  3
   1828   1829   1832   1833     1  0.0000000  1.0460000  1
   1828   1829   1832   1833     1  0.0000000  0.0000000  3
   1825   1828   1829   1830     1  0.0000000  1.6038667  3
   1825   1828   1829   1831     1  0.0000000  1.6038667  3
   1885   1884   1882   1888     1  0.0000000  1.0460000  1
   1885   1884   1882   1888     1  0.0000000  0.0000000  3
   1885   1884   1886   1887     1  0.0000000  0.6973333  3
   1883   1882   1884   1885     1  0.0000000  0.6508444  3
   1883   1882   1884   1886     1  0.0000000  1.0460000  1
   1883   1882   1884   1886     1  0.0000000  0.0000000  3
   1883   1882   1888   1889     1  0.0000000  1.6038667  3
   1882   1884   1886   1887     1  0.0000000  1.0460000  1
   1882   1884   1886   1887     1  0.0000000  0.6694400  3
   1878   1876   1875   1879     1  180.0000771  10.0416000  2
   1877   1876   1875   1879     1  180.0000771  10.0416000  2
   1874   1873   1875   1876     1  180.0000771  10.6692000  2
   1874   1873   1875   1879     1  180.0000771  10.6692000  2
   1873   1875   1876   1877     1  180.0000771  10.0416000  2
   1873   1875   1876   1878     1  180.0000771  10.0416000  2
   1872   1871   1870   1880     1  180.0000771  7.7404000  2
   1872   1871   1873   1874     1  180.0000771  27.8236000  2
   1872   1871   1873   1875     1  180.0000771  27.8236000  2
   1870   1868   1884   1885     1  0.0000000  0.6508444  3
   1870   1871   1873   1874     1  180.0000771  27.8236000  2
   1869   1868   1870   1871     1  0.0000000  0.0000000  2
   1869   1868   1870   1880     1  0.0000000  0.0000000  2
   1869   1868   1884   1882     1  0.0000000  0.6508444  3
   1869   1868   1884   1885     1  0.0000000  0.6508444  3
   1869   1868   1884   1886     1  0.0000000  0.6508444  3
   1868   1870   1871   1872     1  180.0000771  7.7404000  2
   1868   1884   1882   1883     1  0.0000000  0.6508444  3
   1868   1884   1886   1887     1  0.0000000  1.0460000  1
   1868   1884   1886   1887     1  0.0000000  0.6694400  3
   1867   1865   1882   1883     1  0.0000000  1.0460000  1
   1867   1865   1882   1883     1  0.0000000  0.0000000  3
   1867   1868   1884   1885     1  0.0000000  1.0460000  1
   1867   1868   1884   1885     1  0.0000000  0.0000000  3
   1866   1865   1867   1868     1  0.0000000  1.6038667  3
   1866   1865   1882   1883     1  0.0000000  0.6508444  3
   1866   1865   1882   1884     1  0.0000000  0.6508444  3
   1866   1865   1882   1888     1  0.0000000  1.0460000  1
   1866   1865   1882   1888     1  0.0000000  0.0000000  3
   1865   1867   1868   1869     1  0.0000000  1.6038667  3
   1865   1882   1884   1885     1  0.0000000  0.6508444  3
   1864   1862   1865   1866     1  0.0000000  0.6508444  3
   1864   1862   1865   1867     1  0.0000000  1.0460000  1
   1864   1862   1865   1867     1  0.0000000  0.0000000  3
   1864   1862   1865   1882     1  0.0000000  0.6508444  3
   1863   1862   1865   1866     1  0.0000000  0.6508444  3
   1863   1862   1865   1867     1  0.0000000  1.0460000  1
   1863   1862   1865   1867     1  0.0000000  0.0000000  3
   1863   1862   1865   1882     1  0.0000000  0.6508444  3
   1862   1865   1882   1883     1  0.0000000  0.6508444  3
   1861   1862   1865   1866     1  0.0000000  1.0460000  1
   1861   1862   1865   1866     1  0.0000000  0.0000000  3
   1858   1861   1862   1863     1  0.0000000  1.6038667  3
   1858   1861   1862   1864     1  0.0000000  1.6038667  3
   1915   1914   1912   1918     1  0.0000000  1.0460000  1
   1915   1914   1912   1918     1  0.0000000  0.0000000  3
   1915   1914   1916   1917     1  0.0000000  0.6973333  3
   1913   1912   1914   1915     1  0.0000000  0.6508444  3
   1913   1912   1914   1916     1  0.0000000  1.0460000  1
   1913   1912   1914   1916     1  0.0000000  0.0000000  3
   1913   1912   1918   1919     1  0.0000000  1.6038667  3
   1912   1914   1916   1917     1  0.0000000  1.0460000  1
   1912   1914   1916   1917     1  0.0000000  0.6694400  3
   1909   1908   1910   1911     1  180.0000771  5.6484000  2
   1907   1906   1908   1909     1  180.0000771  5.6484000  2
   1905   1904   1906   1907     1  180.0000771  9.1002000  2
   1905   1904   1906   1908     1  180.0000771  9.1002000  2
   1904   1906   1908   1909     1  180.0000771  5.6484000  2
   1903   1902   1901   1910     1  180.0000771  7.7404000  2
   1903   1902   1904   1905     1  180.0000771  27.8236000  2
   1903   1902   1904   1906     1  180.0000771  27.8236000  2
   1901   1899   1914   1915     1  0.0000000  0.6508444  3
   1901   1902   1904   1905     1  180.0000771  27.8236000  2
   1901   1910   1908   1909     1  180.0000771  5.6484000  2
   1900   1899   1901   1902     1  0.0000000  0.0000000  2
   1900   1899   1901   1910     1  0.0000000  0.0000000  2
   1900   1899   1914   1912     1  0.0000000  0.6508444  3
   1900   1899   1914   1915     1  0.0000000  0.6508444  3
   1900   1899   1914   1916     1  0.0000000  0.6508444  3
   1899   1901   1902   1903     1  180.0000771  7.7404000  2
   1899   1914   1912   1913     1  0.0000000  0.6508444  3
   1899   1914   1916   1917     1  0.0000000  1.0460000  1
   1899   1914   1916   1917     1  0.0000000  0.6694400  3
   1898   1896   1912   1913     1  0.0000000  1.0460000  1
   1898   1896   1912   1913     1  0.0000000  0.0000000  3
   1898   1899   1914   1915     1  0.0000000  1.0460000  1
   1898   1899   1914   1915     1  0.0000000  0.0000000  3
   1897   1896   1898   1899     1  0.0000000  1.6038667  3
   1897   1896   1912   1913     1  0.0000000  0.6508444  3
   1897   1896   1912   1914     1  0.0000000  0.6508444  3
   1897   1896   1912   1918     1  0.0000000  1.0460000  1
   1897   1896   1912   1918     1  0.0000000  0.0000000  3
   1896   1898   1899   1900     1  0.0000000  1.6038667  3
   1896   1912   1914   1915     1  0.0000000  0.6508444  3
   1895   1893   1896   1897     1  0.0000000  0.6508444  3
   1895   1893   1896   1898     1  0.0000000  1.0460000  1
   1895   1893   1896   1898     1  0.0000000  0.0000000  3
   1895   1893   1896   1912     1  0.0000000  0.6508444  3
   1894   1893   1896   1897     1  0.0000000  0.6508444  3
   1894   1893   1896   1898     1  0.0000000  1.0460000  1
   1894   1893   1896   1898     1  0.0000000  0.0000000  3
   1894   1893   1896   1912     1  0.0000000  0.6508444  3
   1893   1896   1912   1913     1  0.0000000  0.6508444  3
   1892   1893   1896   1897     1  0.0000000  1.0460000  1
   1892   1893   1896   1897     1  0.0000000  0.0000000  3
   1889   1892   1893   1894     1  0.0000000  1.6038667  3
   1889   1892   1893   1895     1  0.0000000  1.6038667  3
   1948   1947   1945   1951     1  0.0000000  1.0460000  1
   1948   1947   1945   1951     1  0.0000000  0.0000000  3
   1948   1947   1949   1950     1  0.0000000  0.6973333  3
   1946   1945   1947   1948     1  0.0000000  0.6508444  3
   1946   1945   1947   1949     1  0.0000000  1.0460000  1
   1946   1945   1947   1949     1  0.0000000  0.0000000  3
   1946   1945   1951   1952     1  0.0000000  1.6038667  3
   1945   1947   1949   1950     1  0.0000000  1.0460000  1
   1945   1947   1949   1950     1  0.0000000  0.6694400  3
   1942   1941   1943   1944     1  180.0000771  28.4512000  2
   1939   1937   1936   1940     1  180.0000771  10.0416000  2
   1938   1937   1936   1940     1  180.0000771  10.0416000  2
   1936   1940   1941   1942     1  180.0000771  28.4512000  2
   1935   1936   1937   1938     1  180.0000771  10.0416000  2
   1935   1936   1937   1939     1  180.0000771  10.0416000  2
   1933   1932   1931   1944     1  180.0000771  7.1128000  2
   1933   1932   1934   1935     1  180.0000771  41.8400000  2
   1931   1929   1947   1948     1  0.0000000  0.6508444  3
   1930   1929   1931   1932     1  0.0000000  0.0000000  2
   1930   1929   1931   1944     1  0.0000000  0.0000000  2
   1930   1929   1947   1945     1  0.0000000  0.6508444  3
   1930   1929   1947   1948     1  0.0000000  0.6508444  3
   1930   1929   1947   1949     1  0.0000000  0.6508444  3
   1929   1931   1932   1933     1  180.0000771  7.1128000  2
   1929   1947   1945   1946     1  0.0000000  0.6508444  3
   1929   1947   1949   1950     1  0.0000000  1.0460000  1
   1929   1947   1949   1950     1  0.0000000  0.6694400  3
   1928   1926   1945   1946     1  0.0000000  1.0460000  1
   1928   1926   1945   1946     1  0.0000000  0.0000000  3
   1928   1929   1947   1948     1  0.0000000  1.0460000  1
   1928   1929   1947   1948     1  0.0000000  0.0000000  3
   1927   1926   1928   1929     1  0.0000000  1.6038667  3
   1927   1926   1945   1946     1  0.0000000  0.6508444  3
   1927   1926   1945   1947     1  0.0000000  0.6508444  3
   1927   1926   1945   1951     1  0.0000000  1.0460000  1
   1927   1926   1945   1951     1  0.0000000  0.0000000  3
   1926   1928   1929   1930     1  0.0000000  1.6038667  3
   1926   1945   1947   1948     1  0.0000000  0.6508444  3
   1925   1923   1926   1927     1  0.0000000  0.6508444  3
   1925   1923   1926   1928     1  0.0000000  1.0460000  1
   1925   1923   1926   1928     1  0.0000000  0.0000000  3
   1925   1923   1926   1945     1  0.0000000  0.6508444  3
   1924   1923   1926   1927     1  0.0000000  0.6508444  3
   1924   1923   1926   1928     1  0.0000000  1.0460000  1
   1924   1923   1926   1928     1  0.0000000  0.0000000  3
   1924   1923   1926   1945     1  0.0000000  0.6508444  3
   1923   1926   1945   1946     1  0.0000000  0.6508444  3
   1922   1923   1926   1927     1  0.0000000  1.0460000  1
   1922   1923   1926   1927     1  0.0000000  0.0000000  3
   1919   1922   1923   1924     1  0.0000000  1.6038667  3
   1919   1922   1923   1925     1  0.0000000  1.6038667  3
   1982   1981   1979   1985     1  0.0000000  1.0460000  1
   1982   1981   1979   1985     1  0.0000000  0.0000000  3
   1982   1981   1983   1984     1  0.0000000  0.6973333  3
   1980   1979   1981   1982     1  0.0000000  0.6508444  3
   1980   1979   1981   1983     1  0.0000000  1.0460000  1
   1980   1979   1981   1983     1  0.0000000  0.0000000  3
   1980   1979   1985   1986     1  0.0000000  1.6038667  3
   1979   1981   1983   1984     1  0.0000000  1.0460000  1
   1979   1981   1983   1984     1  0.0000000  0.6694400  3
   1976   1974   1973   1977     1  180.0000771  10.0416000  2
   1975   1974   1973   1977     1  180.0000771  10.0416000  2
   1972   1971   1973   1974     1  180.0000771  6.2760000  2
   1972   1971   1973   1977     1  180.0000771  6.2760000  2
   1971   1973   1974   1975     1  180.0000771  10.0416000  2
   1971   1973   1974   1976     1  180.0000771  10.0416000  2
   1970   1969   1971   1972     1  180.0000771  5.6484000  2
   1968   1969   1971   1972     1  180.0000771  5.6484000  2
   1966   1965   1964   1978     1  180.0000771  7.1128000  2
   1966   1965   1967   1968     1  180.0000771  41.8400000  2
   1964   1962   1981   1982     1  0.0000000  0.6508444  3
   1963   1962   1964   1965     1  0.0000000  0.0000000  2
   1963   1962   1964   1978     1  0.0000000  0.0000000  2
   1963   1962   1981   1979     1  0.0000000  0.6508444  3
   1963   1962   1981   1982     1  0.0000000  0.6508444  3
   1963   1962   1981   1983     1  0.0000000  0.6508444  3
   1962   1964   1965   1966     1  180.0000771  7.1128000  2
   1962   1981   1979   1980     1  0.0000000  0.6508444  3
   1962   1981   1983   1984     1  0.0000000  1.0460000  1
   1962   1981   1983   1984     1  0.0000000  0.6694400  3
   1961   1959   1979   1980     1  0.0000000  1.0460000  1
   1961   1959   1979   1980     1  0.0000000  0.0000000  3
   1961   1962   1981   1982     1  0.0000000  1.0460000  1
   1961   1962   1981   1982     1  0.0000000  0.0000000  3
   1960   1959   1961   1962     1  0.0000000  1.6038667  3
   1960   1959   1979   1980     1  0.0000000  0.6508444  3
   1960   1959   1979   1981     1  0.0000000  0.6508444  3
   1960   1959   1979   1985     1  0.0000000  1.0460000  1
   1960   1959   1979   1985     1  0.0000000  0.0000000  3
   1959   1961   1962   1963     1  0.0000000  1.6038667  3
   1959   1979   1981   1982     1  0.0000000  0.6508444  3
   1958   1956   1959   1960     1  0.0000000  0.6508444  3
   1958   1956   1959   1961     1  0.0000000  1.0460000  1
   1958   1956   1959   1961     1  0.0000000  0.0000000  3
   1958   1956   1959   1979     1  0.0000000  0.6508444  3
   1957   1956   1959   1960     1  0.0000000  0.6508444  3
   1957   1956   1959   1961     1  0.0000000  1.0460000  1
   1957   1956   1959   1961     1  0.0000000  0.0000000  3
   1957   1956   1959   1979     1  0.0000000  0.6508444  3
   1956   1959   1979   1980     1  0.0000000  0.6508444  3
   1955   1956   1959   1960     1  0.0000000  1.0460000  1
   1955   1956   1959   1960     1  0.0000000  0.0000000  3
   1952   1955   1956   1957     1  0.0000000  1.6038667  3
   1952   1955   1956   1958     1  0.0000000  1.6038667  3
   2012   2011   2009   2015     1  0.0000000  1.0460000  1
   2012   2011   2009   2015     1  0.0000000  0.0000000  3
   2012   2011   2013   2014     1  0.0000000  0.6973333  3
   2010   2009   2011   2012     1  0.0000000  0.6508444  3
   2010   2009   2011   2013     1  0.0000000  1.0460000  1
   2010   2009   2011   2013     1  0.0000000  0.0000000  3
   2010   2009   2015   2016     1  0.0000000  1.6038667  3
   2009   2011   2013   2014     1  0.0000000  1.0460000  1
   2009   2011   2013   2014     1  0.0000000  0.6694400  3
   2006   2005   2007   2008     1  180.0000771  5.6484000  2
   2004   2003   2005   2006     1  180.0000771  5.6484000  2
   2002   2001   2003   2004     1  180.0000771  9.1002000  2
   2002   2001   2003   2005     1  180.0000771  9.1002000  2
   2001   2003   2005   2006     1  180.0000771  5.6484000  2
   2000   1999   1998   2007     1  180.0000771  7.7404000  2
   2000   1999   2001   2002     1  180.0000771  27.8236000  2
   2000   1999   2001   2003     1  180.0000771  27.8236000  2
   1998   1996   2011   2012     1  0.0000000  0.6508444  3
   1998   1999   2001   2002     1  180.0000771  27.8236000  2
   1998   2007   2005   2006     1  180.0000771  5.6484000  2
   1997   1996   1998   1999     1  0.0000000  0.0000000  2
   1997   1996   1998   2007     1  0.0000000  0.0000000  2
   1997   1996   2011   2009     1  0.0000000  0.6508444  3
   1997   1996   2011   2012     1  0.0000000  0.6508444  3
   1997   1996   2011   2013     1  0.0000000  0.6508444  3
   1996   1998   1999   2000     1  180.0000771  7.7404000  2
   1996   2011   2009   2010     1  0.0000000  0.6508444  3
   1996   2011   2013   2014     1  0.0000000  1.0460000  1
   1996   2011   2013   2014     1  0.0000000  0.6694400  3
   1995   1993   2009   2010     1  0.0000000  1.0460000  1
   1995   1993   2009   2010     1  0.0000000  0.0000000  3
   1995   1996   2011   2012     1  0.0000000  1.0460000  1
   1995   1996   2011   2012     1  0.0000000  0.0000000  3
   1994   1993   1995   1996     1  0.0000000  1.6038667  3
   1994   1993   2009   2010     1  0.0000000  0.6508444  3
   1994   1993   2009   2011     1  0.0000000  0.6508444  3
   1994   1993   2009   2015     1  0.0000000  1.0460000  1
   1994   1993   2009   2015     1  0.0000000  0.0000000  3
   1993   1995   1996   1997     1  0.0000000  1.6038667  3
   1993   2009   2011   2012     1  0.0000000  0.6508444  3
   1992   1990   1993   1994     1  0.0000000  0.6508444  3
   1992   1990   1993   1995     1  0.0000000  1.0460000  1
   1992   1990   1993   1995     1  0.0000000  0.0000000  3
   1992   1990   1993   2009     1  0.0000000  0.6508444  3
   1991   1990   1993   1994     1  0.0000000  0.6508444  3
   1991   1990   1993   1995     1  0.0000000  1.0460000  1
   1991   1990   1993   1995     1  0.0000000  0.0000000  3
   1991   1990   1993   2009     1  0.0000000  0.6508444  3
   1990   1993   2009   2010     1  0.0000000  0.6508444  3
   1989   1990   1993   1994     1  0.0000000  1.0460000  1
   1989   1990   1993   1994     1  0.0000000  0.0000000  3
   1986   1989   1990   1991     1  0.0000000  1.6038667  3
   1986   1989   1990   1992     1  0.0000000  1.6038667  3
   2045   2044   2042   2048     1  0.0000000  1.0460000  1
   2045   2044   2042   2048     1  0.0000000  0.0000000  3
   2045   2044   2046   2047     1  0.0000000  0.6973333  3
   2043   2042   2044   2045     1  0.0000000  0.6508444  3
   2043   2042   2044   2046     1  0.0000000  1.0460000  1
   2043   2042   2044   2046     1  0.0000000  0.0000000  3
   2043   2042   2048   2049     1  0.0000000  1.6038667  3
   2042   2044   2046   2047     1  0.0000000  1.0460000  1
   2042   2044   2046   2047     1  0.0000000  0.6694400  3
   2039   2038   2040   2041     1  180.0000771  28.4512000  2
   2036   2034   2033   2037     1  180.0000771  10.0416000  2
   2035   2034   2033   2037     1  180.0000771  10.0416000  2
   2033   2037   2038   2039     1  180.0000771  28.4512000  2
   2032   2033   2034   2035     1  180.0000771  10.0416000  2
   2032   2033   2034   2036     1  180.0000771  10.0416000  2
   2030   2029   2028   2041     1  180.0000771  7.1128000  2
   2030   2029   2031   2032     1  180.0000771  41.8400000  2
   2028   2026   2044   2045     1  0.0000000  0.6508444  3
   2027   2026   2028   2029     1  0.0000000  0.0000000  2
   2027   2026   2028   2041     1  0.0000000  0.0000000  2
   2027   2026   2044   2042     1  0.0000000  0.6508444  3
   2027   2026   2044   2045     1  0.0000000  0.6508444  3
   2027   2026   2044   2046     1  0.0000000  0.6508444  3
   2026   2028   2029   2030     1  180.0000771  7.1128000  2
   2026   2044   2042   2043     1  0.0000000  0.6508444  3
   2026   2044   2046   2047     1  0.0000000  1.0460000  1
   2026   2044   2046   2047     1  0.0000000  0.6694400  3
   2025   2023   2042   2043     1  0.0000000  1.0460000  1
   2025   2023   2042   2043     1  0.0000000  0.0000000  3
   2025   2026   2044   2045     1  0.0000000  1.0460000  1
   2025   2026   2044   2045     1  0.0000000  0.0000000  3
   2024   2023   2025   2026     1  0.0000000  1.6038667  3
   2024   2023   2042   2043     1  0.0000000  0.6508444  3
   2024   2023   2042   2044     1  0.0000000  0.6508444  3
   2024   2023   2042   2048     1  0.0000000  1.0460000  1
   2024   2023   2042   2048     1  0.0000000  0.0000000  3
   2023   2025   2026   2027     1  0.0000000  1.6038667  3
   2023   2042   2044   2045     1  0.0000000  0.6508444  3
   2022   2020   2023   2024     1  0.0000000  0.6508444  3
   2022   2020   2023   2025     1  0.0000000  1.0460000  1
   2022   2020   2023   2025     1  0.0000000  0.0000000  3
   2022   2020   2023   2042     1  0.0000000  0.6508444  3
   2021   2020   2023   2024     1  0.0000000  0.6508444  3
   2021   2020   2023   2025     1  0.0000000  1.0460000  1
   2021   2020   2023   2025     1  0.0000000  0.0000000  3
   2021   2020   2023   2042     1  0.0000000  0.6508444  3
   2020   2023   2042   2043     1  0.0000000  0.6508444  3
   2019   2020   2023   2024     1  0.0000000  1.0460000  1
   2019   2020   2023   2024     1  0.0000000  0.0000000  3
   2016   2019   2020   2021     1  0.0000000  1.6038667  3
   2016   2019   2020   2022     1  0.0000000  1.6038667  3
   2076   2075   2073   2079     1  0.0000000  1.0460000  1
   2076   2075   2073   2079     1  0.0000000  0.0000000  3
   2076   2075   2077   2078     1  0.0000000  0.6973333  3
   2074   2073   2075   2076     1  0.0000000  0.6508444  3
   2074   2073   2075   2077     1  0.0000000  1.0460000  1
   2074   2073   2075   2077     1  0.0000000  0.0000000  3
   2074   2073   2079   2080     1  0.0000000  1.6038667  3
   2073   2075   2077   2078     1  0.0000000  1.0460000  1
   2073   2075   2077   2078     1  0.0000000  0.6694400  3
   2069   2067   2066   2070     1  180.0000771  10.0416000  2
   2068   2067   2066   2070     1  180.0000771  10.0416000  2
   2065   2064   2066   2067     1  180.0000771  10.6692000  2
   2065   2064   2066   2070     1  180.0000771  10.6692000  2
   2064   2066   2067   2068     1  180.0000771  10.0416000  2
   2064   2066   2067   2069     1  180.0000771  10.0416000  2
   2063   2062   2061   2071     1  180.0000771  7.7404000  2
   2063   2062   2064   2065     1  180.0000771  27.8236000  2
   2063   2062   2064   2066     1  180.0000771  27.8236000  2
   2061   2059   2075   2076     1  0.0000000  0.6508444  3
   2061   2062   2064   2065     1  180.0000771  27.8236000  2
   2060   2059   2061   2062     1  0.0000000  0.0000000  2
   2060   2059   2061   2071     1  0.0000000  0.0000000  2
   2060   2059   2075   2073     1  0.0000000  0.6508444  3
   2060   2059   2075   2076     1  0.0000000  0.6508444  3
   2060   2059   2075   2077     1  0.0000000  0.6508444  3
   2059   2061   2062   2063     1  180.0000771  7.7404000  2
   2059   2075   2073   2074     1  0.0000000  0.6508444  3
   2059   2075   2077   2078     1  0.0000000  1.0460000  1
   2059   2075   2077   2078     1  0.0000000  0.6694400  3
   2058   2056   2073   2074     1  0.0000000  1.0460000  1
   2058   2056   2073   2074     1  0.0000000  0.0000000  3
   2058   2059   2075   2076     1  0.0000000  1.0460000  1
   2058   2059   2075   2076     1  0.0000000  0.0000000  3
   2057   2056   2058   2059     1  0.0000000  1.6038667  3
   2057   2056   2073   2074     1  0.0000000  0.6508444  3
   2057   2056   2073   2075     1  0.0000000  0.6508444  3
   2057   2056   2073   2079     1  0.0000000  1.0460000  1
   2057   2056   2073   2079     1  0.0000000  0.0000000  3
   2056   2058   2059   2060     1  0.0000000  1.6038667  3
   2056   2073   2075   2076     1  0.0000000  0.6508444  3
   2055   2053   2056   2057     1  0.0000000  0.6508444  3
   2055   2053   2056   2058     1  0.0000000  1.0460000  1
   2055   2053   2056   2058     1  0.0000000  0.0000000  3
   2055   2053   2056   2073     1  0.0000000  0.6508444  3
   2054   2053   2056   2057     1  0.0000000  0.6508444  3
   2054   2053   2056   2058     1  0.0000000  1.0460000  1
   2054   2053   2056   2058     1  0.0000000  0.0000000  3
   2054   2053   2056   2073     1  0.0000000  0.6508444  3
   2053   2056   2073   2074     1  0.0000000  0.6508444  3
   2052   2053   2056   2057     1  0.0000000  1.0460000  1
   2052   2053   2056   2057     1  0.0000000  0.0000000  3
   2049   2052   2053   2054     1  0.0000000  1.6038667  3
   2049   2052   2053   2055     1  0.0000000  1.6038667  3
   2106   2105   2103   2109     1  0.0000000  1.0460000  1
   2106   2105   2103   2109     1  0.0000000  0.0000000  3
   2106   2105   2107   2108     1  0.0000000  0.6973333  3
   2104   2103   2105   2106     1  0.0000000  0.6508444  3
   2104   2103   2105   2107     1  0.0000000  1.0460000  1
   2104   2103   2105   2107     1  0.0000000  0.0000000  3
   2104   2103   2109   2110     1  0.0000000  1.6038667  3
   2103   2105   2107   2108     1  0.0000000  1.0460000  1
   2103   2105   2107   2108     1  0.0000000  0.6694400  3
   2100   2099   2101   2102     1  180.0000771  5.6484000  2
   2098   2097   2099   2100     1  180.0000771  5.6484000  2
   2096   2095   2097   2098     1  180.0000771  9.1002000  2
   2096   2095   2097   2099     1  180.0000771  9.1002000  2
   2095   2097   2099   2100     1  180.0000771  5.6484000  2
   2094   2093   2092   2101     1  180.0000771  7.7404000  2
   2094   2093   2095   2096     1  180.0000771  27.8236000  2
   2094   2093   2095   2097     1  180.0000771  27.8236000  2
   2092   2090   2105   2106     1  0.0000000  0.6508444  3
   2092   2093   2095   2096     1  180.0000771  27.8236000  2
   2092   2101   2099   2100     1  180.0000771  5.6484000  2
   2091   2090   2092   2093     1  0.0000000  0.0000000  2
   2091   2090   2092   2101     1  0.0000000  0.0000000  2
   2091   2090   2105   2103     1  0.0000000  0.6508444  3
   2091   2090   2105   2106     1  0.0000000  0.6508444  3
   2091   2090   2105   2107     1  0.0000000  0.6508444  3
   2090   2092   2093   2094     1  180.0000771  7.7404000  2
   2090   2105   2103   2104     1  0.0000000  0.6508444  3
   2090   2105   2107   2108     1  0.0000000  1.0460000  1
   2090   2105   2107   2108     1  0.0000000  0.6694400  3
   2089   2087   2103   2104     1  0.0000000  1.0460000  1
   2089   2087   2103   2104     1  0.0000000  0.0000000  3
   2089   2090   2105   2106     1  0.0000000  1.0460000  1
   2089   2090   2105   2106     1  0.0000000  0.0000000  3
   2088   2087   2089   2090     1  0.0000000  1.6038667  3
   2088   2087   2103   2104     1  0.0000000  0.6508444  3
   2088   2087   2103   2105     1  0.0000000  0.6508444  3
   2088   2087   2103   2109     1  0.0000000  1.0460000  1
   2088   2087   2103   2109     1  0.0000000  0.0000000  3
   2087   2089   2090   2091     1  0.0000000  1.6038667  3
   2087   2103   2105   2106     1  0.0000000  0.6508444  3
   2086   2084   2087   2088     1  0.0000000  0.6508444  3
   2086   2084   2087   2089     1  0.0000000  1.0460000  1
   2086   2084   2087   2089     1  0.0000000  0.0000000  3
   2086   2084   2087   2103     1  0.0000000  0.6508444  3
   2085   2084   2087   2088     1  0.0000000  0.6508444  3
   2085   2084   2087   2089     1  0.0000000  1.0460000  1
   2085   2084   2087   2089     1  0.0000000  0.0000000  3
   2085   2084   2087   2103     1  0.0000000  0.6508444  3
   2084   2087   2103   2104     1  0.0000000  0.6508444  3
   2083   2084   2087   2088     1  0.0000000  1.0460000  1
   2083   2084   2087   2088     1  0.0000000  0.0000000  3
   2080   2083   2084   2085     1  0.0000000  1.6038667  3
   2080   2083   2084   2086     1  0.0000000  1.6038667  3
   2140   2139   2137   2143     1  0.0000000  1.0460000  1
   2140   2139   2137   2143     1  0.0000000  0.0000000  3
   2140   2139   2141   2142     1  0.0000000  0.6973333  3
   2138   2137   2139   2140     1  0.0000000  0.6508444  3
   2138   2137   2139   2141     1  0.0000000  1.0460000  1
   2138   2137   2139   2141     1  0.0000000  0.0000000  3
   2138   2137   2143   2144     1  0.0000000  1.6038667  3
   2137   2139   2141   2142     1  0.0000000  1.0460000  1
   2137   2139   2141   2142     1  0.0000000  0.6694400  3
   2134   2132   2131   2135     1  180.0000771  10.0416000  2
   2133   2132   2131   2135     1  180.0000771  10.0416000  2
   2130   2129   2131   2132     1  180.0000771  6.2760000  2
   2130   2129   2131   2135     1  180.0000771  6.2760000  2
   2129   2131   2132   2133     1  180.0000771  10.0416000  2
   2129   2131   2132   2134     1  180.0000771  10.0416000  2
   2128   2127   2129   2130     1  180.0000771  5.6484000  2
   2126   2127   2129   2130     1  180.0000771  5.6484000  2
   2124   2123   2122   2136     1  180.0000771  7.1128000  2
   2124   2123   2125   2126     1  180.0000771  41.8400000  2
   2122   2120   2139   2140     1  0.0000000  0.6508444  3
   2121   2120   2122   2123     1  0.0000000  0.0000000  2
   2121   2120   2122   2136     1  0.0000000  0.0000000  2
   2121   2120   2139   2137     1  0.0000000  0.6508444  3
   2121   2120   2139   2140     1  0.0000000  0.6508444  3
   2121   2120   2139   2141     1  0.0000000  0.6508444  3
   2120   2122   2123   2124     1  180.0000771  7.1128000  2
   2120   2139   2137   2138     1  0.0000000  0.6508444  3
   2120   2139   2141   2142     1  0.0000000  1.0460000  1
   2120   2139   2141   2142     1  0.0000000  0.6694400  3
   2119   2117   2137   2138     1  0.0000000  1.0460000  1
   2119   2117   2137   2138     1  0.0000000  0.0000000  3
   2119   2120   2139   2140     1  0.0000000  1.0460000  1
   2119   2120   2139   2140     1  0.0000000  0.0000000  3
   2118   2117   2119   2120     1  0.0000000  1.6038667  3
   2118   2117   2137   2138     1  0.0000000  0.6508444  3
   2118   2117   2137   2139     1  0.0000000  0.6508444  3
   2118   2117   2137   2143     1  0.0000000  1.0460000  1
   2118   2117   2137   2143     1  0.0000000  0.0000000  3
   2117   2119   2120   2121     1  0.0000000  1.6038667  3
   2117   2137   2139   2140     1  0.0000000  0.6508444  3
   2116   2114   2117   2118     1  0.0000000  0.6508444  3
   2116   2114   2117   2119     1  0.0000000  1.0460000  1
   2116   2114   2117   2119     1  0.0000000  0.0000000  3
   2116   2114   2117   2137     1  0.0000000  0.6508444  3
   2115   2114   2117   2118     1  0.0000000  0.6508444  3
   2115   2114   2117   2119     1  0.0000000  1.0460000  1
   2115   2114   2117   2119     1  0.0000000  0.0000000  3
   2115   2114   2117   2137     1  0.0000000  0.6508444  3
   2114   2117   2137   2138     1  0.0000000  0.6508444  3
   2113   2114   2117   2118     1  0.0000000  1.0460000  1
   2113   2114   2117   2118     1  0.0000000  0.0000000  3
   2110   2113   2114   2115     1  0.0000000  1.6038667  3
   2110   2113   2114   2116     1  0.0000000  1.6038667  3
   2173   2172   2170   2176     1  0.0000000  1.0460000  1
   2173   2172   2170   2176     1  0.0000000  0.0000000  3
   2173   2172   2174   2175     1  0.0000000  0.6973333  3
   2171   2170   2172   2173     1  0.0000000  0.6508444  3
   2171   2170   2172   2174     1  0.0000000  1.0460000  1
   2171   2170   2172   2174     1  0.0000000  0.0000000  3
   2171   2170   2176   2177     1  0.0000000  1.6038667  3
   2170   2172   2174   2175     1  0.0000000  1.0460000  1
   2170   2172   2174   2175     1  0.0000000  0.6694400  3
   2167   2166   2168   2169     1  180.0000771  28.4512000  2
   2164   2162   2161   2165     1  180.0000771  10.0416000  2
   2163   2162   2161   2165     1  180.0000771  10.0416000  2
   2161   2165   2166   2167     1  180.0000771  28.4512000  2
   2160   2161   2162   2163     1  180.0000771  10.0416000  2
   2160   2161   2162   2164     1  180.0000771  10.0416000  2
   2158   2157   2156   2169     1  180.0000771  7.1128000  2
   2158   2157   2159   2160     1  180.0000771  41.8400000  2
   2156   2154   2172   2173     1  0.0000000  0.6508444  3
   2155   2154   2156   2157     1  0.0000000  0.0000000  2
   2155   2154   2156   2169     1  0.0000000  0.0000000  2
   2155   2154   2172   2170     1  0.0000000  0.6508444  3
   2155   2154   2172   2173     1  0.0000000  0.6508444  3
   2155   2154   2172   2174     1  0.0000000  0.6508444  3
   2154   2156   2157   2158     1  180.0000771  7.1128000  2
   2154   2172   2170   2171     1  0.0000000  0.6508444  3
   2154   2172   2174   2175     1  0.0000000  1.0460000  1
   2154   2172   2174   2175     1  0.0000000  0.6694400  3
   2153   2151   2170   2171     1  0.0000000  1.0460000  1
   2153   2151   2170   2171     1  0.0000000  0.0000000  3
   2153   2154   2172   2173     1  0.0000000  1.0460000  1
   2153   2154   2172   2173     1  0.0000000  0.0000000  3
   2152   2151   2153   2154     1  0.0000000  1.6038667  3
   2152   2151   2170   2171     1  0.0000000  0.6508444  3
   2152   2151   2170   2172     1  0.0000000  0.6508444  3
   2152   2151   2170   2176     1  0.0000000  1.0460000  1
   2152   2151   2170   2176     1  0.0000000  0.0000000  3
   2151   2153   2154   2155     1  0.0000000  1.6038667  3
   2151   2170   2172   2173     1  0.0000000  0.6508444  3
   2150   2148   2151   2152     1  0.0000000  0.6508444  3
   2150   2148   2151   2153     1  0.0000000  1.0460000  1
   2150   2148   2151   2153     1  0.0000000  0.0000000  3
   2150   2148   2151   2170     1  0.0000000  0.6508444  3
   2149   2148   2151   2152     1  0.0000000  0.6508444  3
   2149   2148   2151   2153     1  0.0000000  1.0460000  1
   2149   2148   2151   2153     1  0.0000000  0.0000000  3
   2149   2148   2151   2170     1  0.0000000  0.6508444  3
   2148   2151   2170   2171     1  0.0000000  0.6508444  3
   2147   2148   2151   2152     1  0.0000000  1.0460000  1
   2147   2148   2151   2152     1  0.0000000  0.0000000  3
   2144   2147   2148   2149     1  0.0000000  1.6038667  3
   2144   2147   2148   2150     1  0.0000000  1.6038667  3
   2203   2202   2200   2206     1  0.0000000  1.0460000  1
   2203   2202   2200   2206     1  0.0000000  0.0000000  3
   2203   2202   2204   2205     1  0.0000000  0.6973333  3
   2201   2200   2202   2203     1  0.0000000  0.6508444  3
   2201   2200   2202   2204     1  0.0000000  1.0460000  1
   2201   2200   2202   2204     1  0.0000000  0.0000000  3
   2201   2200   2206   2207     1  0.0000000  1.6038667  3
   2200   2202   2204   2205     1  0.0000000  1.0460000  1
   2200   2202   2204   2205     1  0.0000000  0.6694400  3
   2197   2196   2198   2199     1  180.0000771  5.6484000  2
   2195   2194   2196   2197     1  180.0000771  5.6484000  2
   2193   2192   2194   2195     1  180.0000771  9.1002000  2
   2193   2192   2194   2196     1  180.0000771  9.1002000  2
   2192   2194   2196   2197     1  180.0000771  5.6484000  2
   2191   2190   2189   2198     1  180.0000771  7.7404000  2
   2191   2190   2192   2193     1  180.0000771  27.8236000  2
   2191   2190   2192   2194     1  180.0000771  27.8236000  2
   2189   2187   2202   2203     1  0.0000000  0.6508444  3
   2189   2190   2192   2193     1  180.0000771  27.8236000  2
   2189   2198   2196   2197     1  180.0000771  5.6484000  2
   2188   2187   2189   2190     1  0.0000000  0.0000000  2
   2188   2187   2189   2198     1  0.0000000  0.0000000  2
   2188   2187   2202   2200     1  0.0000000  0.6508444  3
   2188   2187   2202   2203     1  0.0000000  0.6508444  3
   2188   2187   2202   2204     1  0.0000000  0.6508444  3
   2187   2189   2190   2191     1  180.0000771  7.7404000  2
   2187   2202   2200   2201     1  0.0000000  0.6508444  3
   2187   2202   2204   2205     1  0.0000000  1.0460000  1
   2187   2202   2204   2205     1  0.0000000  0.6694400  3
   2186   2184   2200   2201     1  0.0000000  1.0460000  1
   2186   2184   2200   2201     1  0.0000000  0.0000000  3
   2186   2187   2202   2203     1  0.0000000  1.0460000  1
   2186   2187   2202   2203     1  0.0000000  0.0000000  3
   2185   2184   2186   2187     1  0.0000000  1.6038667  3
   2185   2184   2200   2201     1  0.0000000  0.6508444  3
   2185   2184   2200   2202     1  0.0000000  0.6508444  3
   2185   2184   2200   2206     1  0.0000000  1.0460000  1
   2185   2184   2200   2206     1  0.0000000  0.0000000  3
   2184   2186   2187   2188     1  0.0000000  1.6038667  3
   2184   2200   2202   2203     1  0.0000000  0.6508444  3
   2183   2181   2184   2185     1  0.0000000  0.6508444  3
   2183   2181   2184   2186     1  0.0000000  1.0460000  1
   2183   2181   2184   2186     1  0.0000000  0.0000000  3
   2183   2181   2184   2200     1  0.0000000  0.6508444  3
   2182   2181   2184   2185     1  0.0000000  0.6508444  3
   2182   2181   2184   2186     1  0.0000000  1.0460000  1
   2182   2181   2184   2186     1  0.0000000  0.0000000  3
   2182   2181   2184   2200     1  0.0000000  0.6508444  3
   2181   2184   2200   2201     1  0.0000000  0.6508444  3
   2180   2181   2184   2185     1  0.0000000  1.0460000  1
   2180   2181   2184   2185     1  0.0000000  0.0000000  3
   2177   2180   2181   2182     1  0.0000000  1.6038667  3
   2177   2180   2181   2183     1  0.0000000  1.6038667  3
   2237   2236   2234   2240     1  0.0000000  1.0460000  1
   2237   2236   2234   2240     1  0.0000000  0.0000000  3
   2237   2236   2238   2239     1  0.0000000  0.6973333  3
   2235   2234   2236   2237     1  0.0000000  0.6508444  3
   2235   2234   2236   2238     1  0.0000000  1.0460000  1
   2235   2234   2236   2238     1  0.0000000  0.0000000  3
   2235   2234   2240   2241     1  0.0000000  1.6038667  3
   2234   2236   2238   2239     1  0.0000000  1.0460000  1
   2234   2236   2238   2239     1  0.0000000  0.6694400  3
   2231   2229   2228   2232     1  180.0000771  10.0416000  2
   2230   2229   2228   2232     1  180.0000771  10.0416000  2
   2227   2226   2228   2229     1  180.0000771  6.2760000  2
   2227   2226   2228   2232     1  180.0000771  6.2760000  2
   2226   2228   2229   2230     1  180.0000771  10.0416000  2
   2226   2228   2229   2231     1  180.0000771  10.0416000  2
   2225   2224   2226   2227     1  180.0000771  5.6484000  2
   2223   2224   2226   2227     1  180.0000771  5.6484000  2
   2221   2220   2219   2233     1  180.0000771  7.1128000  2
   2221   2220   2222   2223     1  180.0000771  41.8400000  2
   2219   2217   2236   2237     1  0.0000000  0.6508444  3
   2218   2217   2219   2220     1  0.0000000  0.0000000  2
   2218   2217   2219   2233     1  0.0000000  0.0000000  2
   2218   2217   2236   2234     1  0.0000000  0.6508444  3
   2218   2217   2236   2237     1  0.0000000  0.6508444  3
   2218   2217   2236   2238     1  0.0000000  0.6508444  3
   2217   2219   2220   2221     1  180.0000771  7.1128000  2
   2217   2236   2234   2235     1  0.0000000  0.6508444  3
   2217   2236   2238   2239     1  0.0000000  1.0460000  1
   2217   2236   2238   2239     1  0.0000000  0.6694400  3
   2216   2214   2234   2235     1  0.0000000  1.0460000  1
   2216   2214   2234   2235     1  0.0000000  0.0000000  3
   2216   2217   2236   2237     1  0.0000000  1.0460000  1
   2216   2217   2236   2237     1  0.0000000  0.0000000  3
   2215   2214   2216   2217     1  0.0000000  1.6038667  3
   2215   2214   2234   2235     1  0.0000000  0.6508444  3
   2215   2214   2234   2236     1  0.0000000  0.6508444  3
   2215   2214   2234   2240     1  0.0000000  1.0460000  1
   2215   2214   2234   2240     1  0.0000000  0.0000000  3
   2214   2216   2217   2218     1  0.0000000  1.6038667  3
   2214   2234   2236   2237     1  0.0000000  0.6508444  3
   2213   2211   2214   2215     1  0.0000000  0.6508444  3
   2213   2211   2214   2216     1  0.0000000  1.0460000  1
   2213   2211   2214   2216     1  0.0000000  0.0000000  3
   2213   2211   2214   2234     1  0.0000000  0.6508444  3
   2212   2211   2214   2215     1  0.0000000  0.6508444  3
   2212   2211   2214   2216     1  0.0000000  1.0460000  1
   2212   2211   2214   2216     1  0.0000000  0.0000000  3
   2212   2211   2214   2234     1  0.0000000  0.6508444  3
   2211   2214   2234   2235     1  0.0000000  0.6508444  3
   2210   2211   2214   2215     1  0.0000000  1.0460000  1
   2210   2211   2214   2215     1  0.0000000  0.0000000  3
   2207   2210   2211   2212     1  0.0000000  1.6038667  3
   2207   2210   2211   2213     1  0.0000000  1.6038667  3
   2267   2266   2264   2270     1  0.0000000  1.0460000  1
   2267   2266   2264   2270     1  0.0000000  0.0000000  3
   2267   2266   2268   2269     1  0.0000000  0.6973333  3
   2265   2264   2266   2267     1  0.0000000  0.6508444  3
   2265   2264   2266   2268     1  0.0000000  1.0460000  1
   2265   2264   2266   2268     1  0.0000000  0.0000000  3
   2265   2264   2270   2271     1  0.0000000  1.6038667  3
   2264   2266   2268   2269     1  0.0000000  1.0460000  1
   2264   2266   2268   2269     1  0.0000000  0.6694400  3
   2261   2260   2262   2263     1  180.0000771  5.6484000  2
   2259   2258   2260   2261     1  180.0000771  5.6484000  2
   2257   2256   2258   2259     1  180.0000771  9.1002000  2
   2257   2256   2258   2260     1  180.0000771  9.1002000  2
   2256   2258   2260   2261     1  180.0000771  5.6484000  2
   2255   2254   2253   2262     1  180.0000771  7.7404000  2
   2255   2254   2256   2257     1  180.0000771  27.8236000  2
   2255   2254   2256   2258     1  180.0000771  27.8236000  2
   2253   2251   2266   2267     1  0.0000000  0.6508444  3
   2253   2254   2256   2257     1  180.0000771  27.8236000  2
   2253   2262   2260   2261     1  180.0000771  5.6484000  2
   2252   2251   2253   2254     1  0.0000000  0.0000000  2
   2252   2251   2253   2262     1  0.0000000  0.0000000  2
   2252   2251   2266   2264     1  0.0000000  0.6508444  3
   2252   2251   2266   2267     1  0.0000000  0.6508444  3
   2252   2251   2266   2268     1  0.0000000  0.6508444  3
   2251   2253   2254   2255     1  180.0000771  7.7404000  2
   2251   2266   2264   2265     1  0.0000000  0.6508444  3
   2251   2266   2268   2269     1  0.0000000  1.0460000  1
   2251   2266   2268   2269     1  0.0000000  0.6694400  3
   2250   2248   2264   2265     1  0.0000000  1.0460000  1
   2250   2248   2264   2265     1  0.0000000  0.0000000  3
   2250   2251   2266   2267     1  0.0000000  1.0460000  1
   2250   2251   2266   2267     1  0.0000000  0.0000000  3
   2249   2248   2250   2251     1  0.0000000  1.6038667  3
   2249   2248   2264   2265     1  0.0000000  0.6508444  3
   2249   2248   2264   2266     1  0.0000000  0.6508444  3
   2249   2248   2264   2270     1  0.0000000  1.0460000  1
   2249   2248   2264   2270     1  0.0000000  0.0000000  3
   2248   2250   2251   2252     1  0.0000000  1.6038667  3
   2248   2264   2266   2267     1  0.0000000  0.6508444  3
   2247   2245   2248   2249     1  0.0000000  0.6508444  3
   2247   2245   2248   2250     1  0.0000000  1.0460000  1
   2247   2245   2248   2250     1  0.0000000  0.0000000  3
   2247   2245   2248   2264     1  0.0000000  0.6508444  3
   2246   2245   2248   2249     1  0.0000000  0.6508444  3
   2246   2245   2248   2250     1  0.0000000  1.0460000  1
   2246   2245   2248   2250     1  0.0000000  0.0000000  3
   2246   2245   2248   2264     1  0.0000000  0.6508444  3
   2245   2248   2264   2265     1  0.0000000  0.6508444  3
   2244   2245   2248   2249     1  0.0000000  1.0460000  1
   2244   2245   2248   2249     1  0.0000000  0.0000000  3
   2241   2244   2245   2246     1  0.0000000  1.6038667  3
   2241   2244   2245   2247     1  0.0000000  1.6038667  3
   2298   2297   2295   2301     1  0.0000000  1.0460000  1
   2298   2297   2295   2301     1  0.0000000  0.0000000  3
   2298   2297   2299   2300     1  0.0000000  0.6973333  3
   2296   2295   2297   2298     1  0.0000000  0.6508444  3
   2296   2295   2297   2299     1  0.0000000  1.0460000  1
   2296   2295   2297   2299     1  0.0000000  0.0000000  3
   2296   2295   2301   2302     1  0.0000000  1.6038667  3
   2295   2297   2299   2300     1  0.0000000  1.0460000  1
   2295   2297   2299   2300     1  0.0000000  0.6694400  3
   2291   2289   2288   2292     1  180.0000771  10.0416000  2
   2290   2289   2288   2292     1  180.0000771  10.0416000  2
   2287   2286   2288   2289     1  180.0000771  10.6692000  2
   2287   2286   2288   2292     1  180.0000771  10.6692000  2
   2286   2288   2289   2290     1  180.0000771  10.0416000  2
   2286   2288   2289   2291     1  180.0000771  10.0416000  2
   2285   2284   2283   2293     1  180.0000771  7.7404000  2
   2285   2284   2286   2287     1  180.0000771  27.8236000  2
   2285   2284   2286   2288     1  180.0000771  27.8236000  2
   2283   2281   2297   2298     1  0.0000000  0.6508444  3
   2283   2284   2286   2287     1  180.0000771  27.8236000  2
   2282   2281   2283   2284     1  0.0000000  0.0000000  2
   2282   2281   2283   2293     1  0.0000000  0.0000000  2
   2282   2281   2297   2295     1  0.0000000  0.6508444  3
   2282   2281   2297   2298     1  0.0000000  0.6508444  3
   2282   2281   2297   2299     1  0.0000000  0.6508444  3
   2281   2283   2284   2285     1  180.0000771  7.7404000  2
   2281   2297   2295   2296     1  0.0000000  0.6508444  3
   2281   2297   2299   2300     1  0.0000000  1.0460000  1
   2281   2297   2299   2300     1  0.0000000  0.6694400  3
   2280   2278   2295   2296     1  0.0000000  1.0460000  1
   2280   2278   2295   2296     1  0.0000000  0.0000000  3
   2280   2281   2297   2298     1  0.0000000  1.0460000  1
   2280   2281   2297   2298     1  0.0000000  0.0000000  3
   2279   2278   2280   2281     1  0.0000000  1.6038667  3
   2279   2278   2295   2296     1  0.0000000  0.6508444  3
   2279   2278   2295   2297     1  0.0000000  0.6508444  3
   2279   2278   2295   2301     1  0.0000000  1.0460000  1
   2279   2278   2295   2301     1  0.0000000  0.0000000  3
   2278   2280   2281   2282     1  0.0000000  1.6038667  3
   2278   2295   2297   2298     1  0.0000000  0.6508444  3
   2277   2275   2278   2279     1  0.0000000  0.6508444  3
   2277   2275   2278   2280     1  0.0000000  1.0460000  1
   2277   2275   2278   2280     1  0.0000000  0.0000000  3
   2277   2275   2278   2295     1  0.0000000  0.6508444  3
   2276   2275   2278   2279     1  0.0000000  0.6508444  3
   2276   2275   2278   2280     1  0.0000000  1.0460000  1
   2276   2275   2278   2280     1  0.0000000  0.0000000  3
   2276   2275   2278   2295     1  0.0000000  0.6508444  3
   2275   2278   2295   2296     1  0.0000000  0.6508444  3
   2274   2275   2278   2279     1  0.0000000  1.0460000  1
   2274   2275   2278   2279     1  0.0000000  0.0000000  3
   2271   2274   2275   2276     1  0.0000000  1.6038667  3
   2271   2274   2275   2277     1  0.0000000  1.6038667  3
   2332   2331   2329   2335     1  0.0000000  1.0460000  1
   2332   2331   2329   2335     1  0.0000000  0.0000000  3
   2332   2331   2333   2334     1  0.0000000  0.6973333  3
   2330   2329   2331   2332     1  0.0000000  0.6508444  3
   2330   2329   2331   2333     1  0.0000000  1.0460000  1
   2330   2329   2331   2333     1  0.0000000  0.0000000  3
   2330   2329   2335   2336     1  0.0000000  1.6038667  3
   2329   2331   2333   2334     1  0.0000000  1.0460000  1
   2329   2331   2333   2334     1  0.0000000  0.6694400  3
   2326   2324   2323   2327     1  180.0000771  10.0416000  2
   2325   2324   2323   2327     1  180.0000771  10.0416000  2
   2322   2321   2323   2324     1  180.0000771  6.2760000  2
   2322   2321   2323   2327     1  180.0000771  6.2760000  2
   2321   2323   2324   2325     1  180.0000771  10.0416000  2
   2321   2323   2324   2326     1  180.0000771  10.0416000  2
   2320   2319   2321   2322     1  180.0000771  5.6484000  2
   2318   2319   2321   2322     1  180.0000771  5.6484000  2
   2316   2315   2314   2328     1  180.0000771  7.1128000  2
   2316   2315   2317   2318     1  180.0000771  41.8400000  2
   2314   2312   2331   2332     1  0.0000000  0.6508444  3
   2313   2312   2314   2315     1  0.0000000  0.0000000  2
   2313   2312   2314   2328     1  0.0000000  0.0000000  2
   2313   2312   2331   2329     1  0.0000000  0.6508444  3
   2313   2312   2331   2332     1  0.0000000  0.6508444  3
   2313   2312   2331   2333     1  0.0000000  0.6508444  3
   2312   2314   2315   2316     1  180.0000771  7.1128000  2
   2312   2331   2329   2330     1  0.0000000  0.6508444  3
   2312   2331   2333   2334     1  0.0000000  1.0460000  1
   2312   2331   2333   2334     1  0.0000000  0.6694400  3
   2311   2309   2329   2330     1  0.0000000  1.0460000  1
   2311   2309   2329   2330     1  0.0000000  0.0000000  3
   2311   2312   2331   2332     1  0.0000000  1.0460000  1
   2311   2312   2331   2332     1  0.0000000  0.0000000  3
   2310   2309   2311   2312     1  0.0000000  1.6038667  3
   2310   2309   2329   2330     1  0.0000000  0.6508444  3
   2310   2309   2329   2331     1  0.0000000  0.6508444  3
   2310   2309   2329   2335     1  0.0000000  1.0460000  1
   2310   2309   2329   2335     1  0.0000000  0.0000000  3
   2309   2311   2312   2313     1  0.0000000  1.6038667  3
   2309   2329   2331   2332     1  0.0000000  0.6508444  3
   2308   2306   2309   2310     1  0.0000000  0.6508444  3
   2308   2306   2309   2311     1  0.0000000  1.0460000  1
   2308   2306   2309   2311     1  0.0000000  0.0000000  3
   2308   2306   2309   2329     1  0.0000000  0.6508444  3
   2307   2306   2309   2310     1  0.0000000  0.6508444  3
   2307   2306   2309   2311     1  0.0000000  1.0460000  1
   2307   2306   2309   2311     1  0.0000000  0.0000000  3
   2307   2306   2309   2329     1  0.0000000  0.6508444  3
   2306   2309   2329   2330     1  0.0000000  0.6508444  3
   2305   2306   2309   2310     1  0.0000000  1.0460000  1
   2305   2306   2309   2310     1  0.0000000  0.0000000  3
   2302   2305   2306   2307     1  0.0000000  1.6038667  3
   2302   2305   2306   2308     1  0.0000000  1.6038667  3
   2362   2361   2359   2365     1  0.0000000  1.0460000  1
   2362   2361   2359   2365     1  0.0000000  0.0000000  3
   2362   2361   2363   2364     1  0.0000000  0.6973333  3
   2360   2359   2361   2362     1  0.0000000  0.6508444  3
   2360   2359   2361   2363     1  0.0000000  1.0460000  1
   2360   2359   2361   2363     1  0.0000000  0.0000000  3
   2360   2359   2365   2366     1  0.0000000  1.6038667  3
   2359   2361   2363   2364     1  0.0000000  1.0460000  1
   2359   2361   2363   2364     1  0.0000000  0.6694400  3
   2356   2355   2357   2358     1  180.0000771  5.6484000  2
   2354   2353   2355   2356     1  180.0000771  5.6484000  2
   2352   2351   2353   2354     1  180.0000771  9.1002000  2
   2352   2351   2353   2355     1  180.0000771  9.1002000  2
   2351   2353   2355   2356     1  180.0000771  5.6484000  2
   2350   2349   2348   2357     1  180.0000771  7.7404000  2
   2350   2349   2351   2352     1  180.0000771  27.8236000  2
   2350   2349   2351   2353     1  180.0000771  27.8236000  2
   2348   2346   2361   2362     1  0.0000000  0.6508444  3
   2348   2349   2351   2352     1  180.0000771  27.8236000  2
   2348   2357   2355   2356     1  180.0000771  5.6484000  2
   2347   2346   2348   2349     1  0.0000000  0.0000000  2
   2347   2346   2348   2357     1  0.0000000  0.0000000  2
   2347   2346   2361   2359     1  0.0000000  0.6508444  3
   2347   2346   2361   2362     1  0.0000000  0.6508444  3
   2347   2346   2361   2363     1  0.0000000  0.6508444  3
   2346   2348   2349   2350     1  180.0000771  7.7404000  2
   2346   2361   2359   2360     1  0.0000000  0.6508444  3
   2346   2361   2363   2364     1  0.0000000  1.0460000  1
   2346   2361   2363   2364     1  0.0000000  0.6694400  3
   2345   2343   2359   2360     1  0.0000000  1.0460000  1
   2345   2343   2359   2360     1  0.0000000  0.0000000  3
   2345   2346   2361   2362     1  0.0000000  1.0460000  1
   2345   2346   2361   2362     1  0.0000000  0.0000000  3
   2344   2343   2345   2346     1  0.0000000  1.6038667  3
   2344   2343   2359   2360     1  0.0000000  0.6508444  3
   2344   2343   2359   2361     1  0.0000000  0.6508444  3
   2344   2343   2359   2365     1  0.0000000  1.0460000  1
   2344   2343   2359   2365     1  0.0000000  0.0000000  3
   2343   2345   2346   2347     1  0.0000000  1.6038667  3
   2343   2359   2361   2362     1  0.0000000  0.6508444  3
   2342   2340   2343   2344     1  0.0000000  0.6508444  3
   2342   2340   2343   2345     1  0.0000000  1.0460000  1
   2342   2340   2343   2345     1  0.0000000  0.0000000  3
   2342   2340   2343   2359     1  0.0000000  0.6508444  3
   2341   2340   2343   2344     1  0.0000000  0.6508444  3
   2341   2340   2343   2345     1  0.0000000  1.0460000  1
   2341   2340   2343   2345     1  0.0000000  0.0000000  3
   2341   2340   2343   2359     1  0.0000000  0.6508444  3
   2340   2343   2359   2360     1  0.0000000  0.6508444  3
   2339   2340   2343   2344     1  0.0000000  1.0460000  1
   2339   2340   2343   2344     1  0.0000000  0.0000000  3
   2336   2339   2340   2341     1  0.0000000  1.6038667  3
   2336   2339   2340   2342     1  0.0000000  1.6038667  3
   2395   2394   2392   2398     1  0.0000000  1.0460000  1
   2395   2394   2392   2398     1  0.0000000  0.0000000  3
   2395   2394   2396   2397     1  0.0000000  0.6973333  3
   2393   2392   2394   2395     1  0.0000000  0.6508444  3
   2393   2392   2394   2396     1  0.0000000  1.0460000  1
   2393   2392   2394   2396     1  0.0000000  0.0000000  3
   2393   2392   2398   2399     1  0.0000000  1.6038667  3
   2392   2394   2396   2397     1  0.0000000  1.0460000  1
   2392   2394   2396   2397     1  0.0000000  0.6694400  3
   2389   2388   2390   2391     1  180.0000771  28.4512000  2
   2386   2384   2383   2387     1  180.0000771  10.0416000  2
   2385   2384   2383   2387     1  180.0000771  10.0416000  2
   2383   2387   2388   2389     1  180.0000771  28.4512000  2
   2382   2383   2384   2385     1  180.0000771  10.0416000  2
   2382   2383   2384   2386     1  180.0000771  10.0416000  2
   2380   2379   2378   2391     1  180.0000771  7.1128000  2
   2380   2379   2381   2382     1  180.0000771  41.8400000  2
   2378   2376   2394   2395     1  0.0000000  0.6508444  3
   2377   2376   2378   2379     1  0.0000000  0.0000000  2
   2377   2376   2378   2391     1  0.0000000  0.0000000  2
   2377   2376   2394   2392     1  0.0000000  0.6508444  3
   2377   2376   2394   2395     1  0.0000000  0.6508444  3
   2377   2376   2394   2396     1  0.0000000  0.6508444  3
   2376   2378   2379   2380     1  180.0000771  7.1128000  2
   2376   2394   2392   2393     1  0.0000000  0.6508444  3
   2376   2394   2396   2397     1  0.0000000  1.0460000  1
   2376   2394   2396   2397     1  0.0000000  0.6694400  3
   2375   2373   2392   2393     1  0.0000000  1.0460000  1
   2375   2373   2392   2393     1  0.0000000  0.0000000  3
   2375   2376   2394   2395     1  0.0000000  1.0460000  1
   2375   2376   2394   2395     1  0.0000000  0.0000000  3
   2374   2373   2375   2376     1  0.0000000  1.6038667  3
   2374   2373   2392   2393     1  0.0000000  0.6508444  3
   2374   2373   2392   2394     1  0.0000000  0.6508444  3
   2374   2373   2392   2398     1  0.0000000  1.0460000  1
   2374   2373   2392   2398     1  0.0000000  0.0000000  3
   2373   2375   2376   2377     1  0.0000000  1.6038667  3
   2373   2392   2394   2395     1  0.0000000  0.6508444  3
   2372   2370   2373   2374     1  0.0000000  0.6508444  3
   2372   2370   2373   2375     1  0.0000000  1.0460000  1
   2372   2370   2373   2375     1  0.0000000  0.0000000  3
   2372   2370   2373   2392     1  0.0000000  0.6508444  3
   2371   2370   2373   2374     1  0.0000000  0.6508444  3
   2371   2370   2373   2375     1  0.0000000  1.0460000  1
   2371   2370   2373   2375     1  0.0000000  0.0000000  3
   2371   2370   2373   2392     1  0.0000000  0.6508444  3
   2370   2373   2392   2393     1  0.0000000  0.6508444  3
   2369   2370   2373   2374     1  0.0000000  1.0460000  1
   2369   2370   2373   2374     1  0.0000000  0.0000000  3
   2366   2369   2370   2371     1  0.0000000  1.6038667  3
   2366   2369   2370   2372     1  0.0000000  1.6038667  3
   2425   2424   2422   2428     1  0.0000000  1.0460000  1
   2425   2424   2422   2428     1  0.0000000  0.0000000  3
   2425   2424   2426   2427     1  0.0000000  0.6973333  3
   2423   2422   2424   2425     1  0.0000000  0.6508444  3
   2423   2422   2424   2426     1  0.0000000  1.0460000  1
   2423   2422   2424   2426     1  0.0000000  0.0000000  3
   2423   2422   2428   2429     1  0.0000000  1.6038667  3
   2422   2424   2426   2427     1  0.0000000  1.0460000  1
   2422   2424   2426   2427     1  0.0000000  0.6694400  3
   2419   2418   2420   2421     1  180.0000771  5.6484000  2
   2417   2416   2418   2419     1  180.0000771  5.6484000  2
   2415   2414   2416   2417     1  180.0000771  9.1002000  2
   2415   2414   2416   2418     1  180.0000771  9.1002000  2
   2414   2416   2418   2419     1  180.0000771  5.6484000  2
   2413   2412   2411   2420     1  180.0000771  7.7404000  2
   2413   2412   2414   2415     1  180.0000771  27.8236000  2
   2413   2412   2414   2416     1  180.0000771  27.8236000  2
   2411   2409   2424   2425     1  0.0000000  0.6508444  3
   2411   2412   2414   2415     1  180.0000771  27.8236000  2
   2411   2420   2418   2419     1  180.0000771  5.6484000  2
   2410   2409   2411   2412     1  0.0000000  0.0000000  2
   2410   2409   2411   2420     1  0.0000000  0.0000000  2
   2410   2409   2424   2422     1  0.0000000  0.6508444  3
   2410   2409   2424   2425     1  0.0000000  0.6508444  3
   2410   2409   2424   2426     1  0.0000000  0.6508444  3
   2409   2411   2412   2413     1  180.0000771  7.7404000  2
   2409   2424   2422   2423     1  0.0000000  0.6508444  3
   2409   2424   2426   2427     1  0.0000000  1.0460000  1
   2409   2424   2426   2427     1  0.0000000  0.6694400  3
   2408   2406   2422   2423     1  0.0000000  1.0460000  1
   2408   2406   2422   2423     1  0.0000000  0.0000000  3
   2408   2409   2424   2425     1  0.0000000  1.0460000  1
   2408   2409   2424   2425     1  0.0000000  0.0000000  3
   2407   2406   2408   2409     1  0.0000000  1.6038667  3
   2407   2406   2422   2423     1  0.0000000  0.6508444  3
   2407   2406   2422   2424     1  0.0000000  0.6508444  3
   2407   2406   2422   2428     1  0.0000000  1.0460000  1
   2407   2406   2422   2428     1  0.0000000  0.0000000  3
   2406   2408   2409   2410     1  0.0000000  1.6038667  3
   2406   2422   2424   2425     1  0.0000000  0.6508444  3
   2405   2403   2406   2407     1  0.0000000  0.6508444  3
   2405   2403   2406   2408     1  0.0000000  1.0460000  1
   2405   2403   2406   2408     1  0.0000000  0.0000000  3
   2405   2403   2406   2422     1  0.0000000  0.6508444  3
   2404   2403   2406   2407     1  0.0000000  0.6508444  3
   2404   2403   2406   2408     1  0.0000000  1.0460000  1
   2404   2403   2406   2408     1  0.0000000  0.0000000  3
   2404   2403   2406   2422     1  0.0000000  0.6508444  3
   2403   2406   2422   2423     1  0.0000000  0.6508444  3
   2402   2403   2406   2407     1  0.0000000  1.0460000  1
   2402   2403   2406   2407     1  0.0000000  0.0000000  3
   2399   2402   2403   2404     1  0.0000000  1.6038667  3
   2399   2402   2403   2405     1  0.0000000  1.6038667  3
   2458   2457   2455   2461     1  0.0000000  1.0460000  1
   2458   2457   2455   2461     1  0.0000000  0.0000000  3
   2458   2457   2459   2460     1  0.0000000  0.6973333  3
   2456   2455   2457   2458     1  0.0000000  0.6508444  3
   2456   2455   2457   2459     1  0.0000000  1.0460000  1
   2456   2455   2457   2459     1  0.0000000  0.0000000  3
   2456   2455   2461   2462     1  0.0000000  1.6038667  3
   2455   2457   2459   2460     1  0.0000000  1.0460000  1
   2455   2457   2459   2460     1  0.0000000  0.6694400  3
   2452   2451   2453   2454     1  180.0000771  28.4512000  2
   2449   2447   2446   2450     1  180.0000771  10.0416000  2
   2448   2447   2446   2450     1  180.0000771  10.0416000  2
   2446   2450   2451   2452     1  180.0000771  28.4512000  2
   2445   2446   2447   2448     1  180.0000771  10.0416000  2
   2445   2446   2447   2449     1  180.0000771  10.0416000  2
   2443   2442   2441   2454     1  180.0000771  7.1128000  2
   2443   2442   2444   2445     1  180.0000771  41.8400000  2
   2441   2439   2457   2458     1  0.0000000  0.6508444  3
   2440   2439   2441   2442     1  0.0000000  0.0000000  2
   2440   2439   2441   2454     1  0.0000000  0.0000000  2
   2440   2439   2457   2455     1  0.0000000  0.6508444  3
   2440   2439   2457   2458     1  0.0000000  0.6508444  3
   2440   2439   2457   2459     1  0.0000000  0.6508444  3
   2439   2441   2442   2443     1  180.0000771  7.1128000  2
   2439   2457   2455   2456     1  0.0000000  0.6508444  3
   2439   2457   2459   2460     1  0.0000000  1.0460000  1
   2439   2457   2459   2460     1  0.0000000  0.6694400  3
   2438   2436   2455   2456     1  0.0000000  1.0460000  1
   2438   2436   2455   2456     1  0.0000000  0.0000000  3
   2438   2439   2457   2458     1  0.0000000  1.0460000  1
   2438   2439   2457   2458     1  0.0000000  0.0000000  3
   2437   2436   2438   2439     1  0.0000000  1.6038667  3
   2437   2436   2455   2456     1  0.0000000  0.6508444  3
   2437   2436   2455   2457     1  0.0000000  0.6508444  3
   2437   2436   2455   2461     1  0.0000000  1.0460000  1
   2437   2436   2455   2461     1  0.0000000  0.0000000  3
   2436   2438   2439   2440     1  0.0000000  1.6038667  3
   2436   2455   2457   2458     1  0.0000000  0.6508444  3
   2435   2433   2436   2437     1  0.0000000  0.6508444  3
   2435   2433   2436   2438     1  0.0000000  1.0460000  1
   2435   2433   2436   2438     1  0.0000000  0.0000000  3
   2435   2433   2436   2455     1  0.0000000  0.6508444  3
   2434   2433   2436   2437     1  0.0000000  0.6508444  3
   2434   2433   2436   2438     1  0.0000000  1.0460000  1
   2434   2433   2436   2438     1  0.0000000  0.0000000  3
   2434   2433   2436   2455     1  0.0000000  0.6508444  3
   2433   2436   2455   2456     1  0.0000000  0.6508444  3
   2432   2433   2436   2437     1  0.0000000  1.0460000  1
   2432   2433   2436   2437     1  0.0000000  0.0000000  3
   2429   2432   2433   2434     1  0.0000000  1.6038667  3
   2429   2432   2433   2435     1  0.0000000  1.6038667  3
   2489   2488   2486   2492     1  0.0000000  1.0460000  1
   2489   2488   2486   2492     1  0.0000000  0.0000000  3
   2489   2488   2490   2491     1  0.0000000  0.6973333  3
   2487   2486   2488   2489     1  0.0000000  0.6508444  3
   2487   2486   2488   2490     1  0.0000000  1.0460000  1
   2487   2486   2488   2490     1  0.0000000  0.0000000  3
   2487   2486   2492   2493     1  0.0000000  1.6038667  3
   2486   2488   2490   2491     1  0.0000000  1.0460000  1
   2486   2488   2490   2491     1  0.0000000  0.6694400  3
   2482   2480   2479   2483     1  180.0000771  10.0416000  2
   2481   2480   2479   2483     1  180.0000771  10.0416000  2
   2478   2477   2479   2480     1  180.0000771  10.6692000  2
   2478   2477   2479   2483     1  180.0000771  10.6692000  2
   2477   2479   2480   2481     1  180.0000771  10.0416000  2
   2477   2479   2480   2482     1  180.0000771  10.0416000  2
   2476   2475   2474   2484     1  180.0000771  7.7404000  2
   2476   2475   2477   2478     1  180.0000771  27.8236000  2
   2476   2475   2477   2479     1  180.0000771  27.8236000  2
   2474   2472   2488   2489     1  0.0000000  0.6508444  3
   2474   2475   2477   2478     1  180.0000771  27.8236000  2
   2473   2472   2474   2475     1  0.0000000  0.0000000  2
   2473   2472   2474   2484     1  0.0000000  0.0000000  2
   2473   2472   2488   2486     1  0.0000000  0.6508444  3
   2473   2472   2488   2489     1  0.0000000  0.6508444  3
   2473   2472   2488   2490     1  0.0000000  0.6508444  3
   2472   2474   2475   2476     1  180.0000771  7.7404000  2
   2472   2488   2486   2487     1  0.0000000  0.6508444  3
   2472   2488   2490   2491     1  0.0000000  1.0460000  1
   2472   2488   2490   2491     1  0.0000000  0.6694400  3
   2471   2469   2486   2487     1  0.0000000  1.0460000  1
   2471   2469   2486   2487     1  0.0000000  0.0000000  3
   2471   2472   2488   2489     1  0.0000000  1.0460000  1
   2471   2472   2488   2489     1  0.0000000  0.0000000  3
   2470   2469   2471   2472     1  0.0000000  1.6038667  3
   2470   2469   2486   2487     1  0.0000000  0.6508444  3
   2470   2469   2486   2488     1  0.0000000  0.6508444  3
   2470   2469   2486   2492     1  0.0000000  1.0460000  1
   2470   2469   2486   2492     1  0.0000000  0.0000000  3
   2469   2471   2472   2473     1  0.0000000  1.6038667  3
   2469   2486   2488   2489     1  0.0000000  0.6508444  3
   2468   2466   2469   2470     1  0.0000000  0.6508444  3
   2468   2466   2469   2471     1  0.0000000  1.0460000  1
   2468   2466   2469   2471     1  0.0000000  0.0000000  3
   2468   2466   2469   2486     1  0.0000000  0.6508444  3
   2467   2466   2469   2470     1  0.0000000  0.6508444  3
   2467   2466   2469   2471     1  0.0000000  1.0460000  1
   2467   2466   2469   2471     1  0.0000000  0.0000000  3
   2467   2466   2469   2486     1  0.0000000  0.6508444  3
   2466   2469   2486   2487     1  0.0000000  0.6508444  3
   2465   2466   2469   2470     1  0.0000000  1.0460000  1
   2465   2466   2469   2470     1  0.0000000  0.0000000  3
   2462   2465   2466   2467     1  0.0000000  1.6038667  3
   2462   2465   2466   2468     1  0.0000000  1.6038667  3
   2522   2521   2519   2525     1  0.0000000  1.0460000  1
   2522   2521   2519   2525     1  0.0000000  0.0000000  3
   2522   2521   2523   2524     1  0.0000000  0.6973333  3
   2520   2519   2521   2522     1  0.0000000  0.6508444  3
   2520   2519   2521   2523     1  0.0000000  1.0460000  1
   2520   2519   2521   2523     1  0.0000000  0.0000000  3
   2520   2519   2525   2526     1  0.0000000  1.6038667  3
   2519   2521   2523   2524     1  0.0000000  1.0460000  1
   2519   2521   2523   2524     1  0.0000000  0.6694400  3
   2516   2515   2517   2518     1  180.0000771  28.4512000  2
   2513   2511   2510   2514     1  180.0000771  10.0416000  2
   2512   2511   2510   2514     1  180.0000771  10.0416000  2
   2510   2514   2515   2516     1  180.0000771  28.4512000  2
   2509   2510   2511   2512     1  180.0000771  10.0416000  2
   2509   2510   2511   2513     1  180.0000771  10.0416000  2
   2507   2506   2505   2518     1  180.0000771  7.1128000  2
   2507   2506   2508   2509     1  180.0000771  41.8400000  2
   2505   2503   2521   2522     1  0.0000000  0.6508444  3
   2504   2503   2505   2506     1  0.0000000  0.0000000  2
   2504   2503   2505   2518     1  0.0000000  0.0000000  2
   2504   2503   2521   2519     1  0.0000000  0.6508444  3
   2504   2503   2521   2522     1  0.0000000  0.6508444  3
   2504   2503   2521   2523     1  0.0000000  0.6508444  3
   2503   2505   2506   2507     1  180.0000771  7.1128000  2
   2503   2521   2519   2520     1  0.0000000  0.6508444  3
   2503   2521   2523   2524     1  0.0000000  1.0460000  1
   2503   2521   2523   2524     1  0.0000000  0.6694400  3
   2502   2500   2519   2520     1  0.0000000  1.0460000  1
   2502   2500   2519   2520     1  0.0000000  0.0000000  3
   2502   2503   2521   2522     1  0.0000000  1.0460000  1
   2502   2503   2521   2522     1  0.0000000  0.0000000  3
   2501   2500   2502   2503     1  0.0000000  1.6038667  3
   2501   2500   2519   2520     1  0.0000000  0.6508444  3
   2501   2500   2519   2521     1  0.0000000  0.6508444  3
   2501   2500   2519   2525     1  0.0000000  1.0460000  1
   2501   2500   2519   2525     1  0.0000000  0.0000000  3
   2500   2502   2503   2504     1  0.0000000  1.6038667  3
   2500   2519   2521   2522     1  0.0000000  0.6508444  3
   2499   2497   2500   2501     1  0.0000000  0.6508444  3
   2499   2497   2500   2502     1  0.0000000  1.0460000  1
   2499   2497   2500   2502     1  0.0000000  0.0000000  3
   2499   2497   2500   2519     1  0.0000000  0.6508444  3
   2498   2497   2500   2501     1  0.0000000  0.6508444  3
   2498   2497   2500   2502     1  0.0000000  1.0460000  1
   2498   2497   2500   2502     1  0.0000000  0.0000000  3
   2498   2497   2500   2519     1  0.0000000  0.6508444  3
   2497   2500   2519   2520     1  0.0000000  0.6508444  3
   2496   2497   2500   2501     1  0.0000000  1.0460000  1
   2496   2497   2500   2501     1  0.0000000  0.0000000  3
   2493   2496   2497   2498     1  0.0000000  1.6038667  3
   2493   2496   2497   2499     1  0.0000000  1.6038667  3
   2556   2555   2553   2559     1  0.0000000  1.0460000  1
   2556   2555   2553   2559     1  0.0000000  0.0000000  3
   2556   2555   2557   2558     1  0.0000000  0.6973333  3
   2554   2553   2555   2556     1  0.0000000  0.6508444  3
   2554   2553   2555   2557     1  0.0000000  1.0460000  1
   2554   2553   2555   2557     1  0.0000000  0.0000000  3
   2554   2553   2559   2560     1  0.0000000  1.6038667  3
   2553   2555   2557   2558     1  0.0000000  1.0460000  1
   2553   2555   2557   2558     1  0.0000000  0.6694400  3
   2550   2548   2547   2551     1  180.0000771  10.0416000  2
   2549   2548   2547   2551     1  180.0000771  10.0416000  2
   2546   2545   2547   2548     1  180.0000771  6.2760000  2
   2546   2545   2547   2551     1  180.0000771  6.2760000  2
   2545   2547   2548   2549     1  180.0000771  10.0416000  2
   2545   2547   2548   2550     1  180.0000771  10.0416000  2
   2544   2543   2545   2546     1  180.0000771  5.6484000  2
   2542   2543   2545   2546     1  180.0000771  5.6484000  2
   2540   2539   2538   2552     1  180.0000771  7.1128000  2
   2540   2539   2541   2542     1  180.0000771  41.8400000  2
   2538   2536   2555   2556     1  0.0000000  0.6508444  3
   2537   2536   2538   2539     1  0.0000000  0.0000000  2
   2537   2536   2538   2552     1  0.0000000  0.0000000  2
   2537   2536   2555   2553     1  0.0000000  0.6508444  3
   2537   2536   2555   2556     1  0.0000000  0.6508444  3
   2537   2536   2555   2557     1  0.0000000  0.6508444  3
   2536   2538   2539   2540     1  180.0000771  7.1128000  2
   2536   2555   2553   2554     1  0.0000000  0.6508444  3
   2536   2555   2557   2558     1  0.0000000  1.0460000  1
   2536   2555   2557   2558     1  0.0000000  0.6694400  3
   2535   2533   2553   2554     1  0.0000000  1.0460000  1
   2535   2533   2553   2554     1  0.0000000  0.0000000  3
   2535   2536   2555   2556     1  0.0000000  1.0460000  1
   2535   2536   2555   2556     1  0.0000000  0.0000000  3
   2534   2533   2535   2536     1  0.0000000  1.6038667  3
   2534   2533   2553   2554     1  0.0000000  0.6508444  3
   2534   2533   2553   2555     1  0.0000000  0.6508444  3
   2534   2533   2553   2559     1  0.0000000  1.0460000  1
   2534   2533   2553   2559     1  0.0000000  0.0000000  3
   2533   2535   2536   2537     1  0.0000000  1.6038667  3
   2533   2553   2555   2556     1  0.0000000  0.6508444  3
   2532   2530   2533   2534     1  0.0000000  0.6508444  3
   2532   2530   2533   2535     1  0.0000000  1.0460000  1
   2532   2530   2533   2535     1  0.0000000  0.0000000  3
   2532   2530   2533   2553     1  0.0000000  0.6508444  3
   2531   2530   2533   2534     1  0.0000000  0.6508444  3
   2531   2530   2533   2535     1  0.0000000  1.0460000  1
   2531   2530   2533   2535     1  0.0000000  0.0000000  3
   2531   2530   2533   2553     1  0.0000000  0.6508444  3
   2530   2533   2553   2554     1  0.0000000  0.6508444  3
   2529   2530   2533   2534     1  0.0000000  1.0460000  1
   2529   2530   2533   2534     1  0.0000000  0.0000000  3
   2526   2529   2530   2531     1  0.0000000  1.6038667  3
   2526   2529   2530   2532     1  0.0000000  1.6038667  3
   2590   2589   2587   2593     1  0.0000000  1.0460000  1
   2590   2589   2587   2593     1  0.0000000  0.0000000  3
   2590   2589   2591   2592     1  0.0000000  0.6973333  3
   2588   2587   2589   2590     1  0.0000000  0.6508444  3
   2588   2587   2589   2591     1  0.0000000  1.0460000  1
   2588   2587   2589   2591     1  0.0000000  0.0000000  3
   2588   2587   2593   2594     1  0.0000000  1.6038667  3
   2587   2589   2591   2592     1  0.0000000  1.0460000  1
   2587   2589   2591   2592     1  0.0000000  0.6694400  3
   2584   2582   2581   2585     1  180.0000771  10.0416000  2
   2583   2582   2581   2585     1  180.0000771  10.0416000  2
   2580   2579   2581   2582     1  180.0000771  6.2760000  2
   2580   2579   2581   2585     1  180.0000771  6.2760000  2
   2579   2581   2582   2583     1  180.0000771  10.0416000  2
   2579   2581   2582   2584     1  180.0000771  10.0416000  2
   2578   2577   2579   2580     1  180.0000771  5.6484000  2
   2576   2577   2579   2580     1  180.0000771  5.6484000  2
   2574   2573   2572   2586     1  180.0000771  7.1128000  2
   2574   2573   2575   2576     1  180.0000771  41.8400000  2
   2572   2570   2589   2590     1  0.0000000  0.6508444  3
   2571   2570   2572   2573     1  0.0000000  0.0000000  2
   2571   2570   2572   2586     1  0.0000000  0.0000000  2
   2571   2570   2589   2587     1  0.0000000  0.6508444  3
   2571   2570   2589   2590     1  0.0000000  0.6508444  3
   2571   2570   2589   2591     1  0.0000000  0.6508444  3
   2570   2572   2573   2574     1  180.0000771  7.1128000  2
   2570   2589   2587   2588     1  0.0000000  0.6508444  3
   2570   2589   2591   2592     1  0.0000000  1.0460000  1
   2570   2589   2591   2592     1  0.0000000  0.6694400  3
   2569   2567   2587   2588     1  0.0000000  1.0460000  1
   2569   2567   2587   2588     1  0.0000000  0.0000000  3
   2569   2570   2589   2590     1  0.0000000  1.0460000  1
   2569   2570   2589   2590     1  0.0000000  0.0000000  3
   2568   2567   2569   2570     1  0.0000000  1.6038667  3
   2568   2567   2587   2588     1  0.0000000  0.6508444  3
   2568   2567   2587   2589     1  0.0000000  0.6508444  3
   2568   2567   2587   2593     1  0.0000000  1.0460000  1
   2568   2567   2587   2593     1  0.0000000  0.0000000  3
   2567   2569   2570   2571     1  0.0000000  1.6038667  3
   2567   2587   2589   2590     1  0.0000000  0.6508444  3
   2566   2564   2567   2568     1  0.0000000  0.6508444  3
   2566   2564   2567   2569     1  0.0000000  1.0460000  1
   2566   2564   2567   2569     1  0.0000000  0.0000000  3
   2566   2564   2567   2587     1  0.0000000  0.6508444  3
   2565   2564   2567   2568     1  0.0000000  0.6508444  3
   2565   2564   2567   2569     1  0.0000000  1.0460000  1
   2565   2564   2567   2569     1  0.0000000  0.0000000  3
   2565   2564   2567   2587     1  0.0000000  0.6508444  3
   2564   2567   2587   2588     1  0.0000000  0.6508444  3
   2563   2564   2567   2568     1  0.0000000  1.0460000  1
   2563   2564   2567   2568     1  0.0000000  0.0000000  3
   2560   2563   2564   2565     1  0.0000000  1.6038667  3
   2560   2563   2564   2566     1  0.0000000  1.6038667  3
   2624   2623   2621   2627     1  0.0000000  1.0460000  1
   2624   2623   2621   2627     1  0.0000000  0.0000000  3
   2624   2623   2625   2626     1  0.0000000  0.6973333  3
   2622   2621   2623   2624     1  0.0000000  0.6508444  3
   2622   2621   2623   2625     1  0.0000000  1.0460000  1
   2622   2621   2623   2625     1  0.0000000  0.0000000  3
   2622   2621   2627   2628     1  0.0000000  1.6038667  3
   2621   2623   2625   2626     1  0.0000000  1.0460000  1
   2621   2623   2625   2626     1  0.0000000  0.6694400  3
   2618   2616   2615   2619     1  180.0000771  10.0416000  2
   2617   2616   2615   2619     1  180.0000771  10.0416000  2
   2614   2613   2615   2616     1  180.0000771  6.2760000  2
   2614   2613   2615   2619     1  180.0000771  6.2760000  2
   2613   2615   2616   2617     1  180.0000771  10.0416000  2
   2613   2615   2616   2618     1  180.0000771  10.0416000  2
   2612   2611   2613   2614     1  180.0000771  5.6484000  2
   2610   2611   2613   2614     1  180.0000771  5.6484000  2
   2608   2607   2606   2620     1  180.0000771  7.1128000  2
   2608   2607   2609   2610     1  180.0000771  41.8400000  2
   2606   2604   2623   2624     1  0.0000000  0.6508444  3
   2605   2604   2606   2607     1  0.0000000  0.0000000  2
   2605   2604   2606   2620     1  0.0000000  0.0000000  2
   2605   2604   2623   2621     1  0.0000000  0.6508444  3
   2605   2604   2623   2624     1  0.0000000  0.6508444  3
   2605   2604   2623   2625     1  0.0000000  0.6508444  3
   2604   2606   2607   2608     1  180.0000771  7.1128000  2
   2604   2623   2621   2622     1  0.0000000  0.6508444  3
   2604   2623   2625   2626     1  0.0000000  1.0460000  1
   2604   2623   2625   2626     1  0.0000000  0.6694400  3
   2603   2601   2621   2622     1  0.0000000  1.0460000  1
   2603   2601   2621   2622     1  0.0000000  0.0000000  3
   2603   2604   2623   2624     1  0.0000000  1.0460000  1
   2603   2604   2623   2624     1  0.0000000  0.0000000  3
   2602   2601   2603   2604     1  0.0000000  1.6038667  3
   2602   2601   2621   2622     1  0.0000000  0.6508444  3
   2602   2601   2621   2623     1  0.0000000  0.6508444  3
   2602   2601   2621   2627     1  0.0000000  1.0460000  1
   2602   2601   2621   2627     1  0.0000000  0.0000000  3
   2601   2603   2604   2605     1  0.0000000  1.6038667  3
   2601   2621   2623   2624     1  0.0000000  0.6508444  3
   2600   2598   2601   2602     1  0.0000000  0.6508444  3
   2600   2598   2601   2603     1  0.0000000  1.0460000  1
   2600   2598   2601   2603     1  0.0000000  0.0000000  3
   2600   2598   2601   2621     1  0.0000000  0.6508444  3
   2599   2598   2601   2602     1  0.0000000  0.6508444  3
   2599   2598   2601   2603     1  0.0000000  1.0460000  1
   2599   2598   2601   2603     1  0.0000000  0.0000000  3
   2599   2598   2601   2621     1  0.0000000  0.6508444  3
   2598   2601   2621   2622     1  0.0000000  0.6508444  3
   2597   2598   2601   2602     1  0.0000000  1.0460000  1
   2597   2598   2601   2602     1  0.0000000  0.0000000  3
   2594   2597   2598   2599     1  0.0000000  1.6038667  3
   2594   2597   2598   2600     1  0.0000000  1.6038667  3
   2655   2654   2652   2658     1  0.0000000  1.0460000  1
   2655   2654   2652   2658     1  0.0000000  0.0000000  3
   2655   2654   2656   2657     1  0.0000000  0.6973333  3
   2653   2652   2654   2655     1  0.0000000  0.6508444  3
   2653   2652   2654   2656     1  0.0000000  1.0460000  1
   2653   2652   2654   2656     1  0.0000000  0.0000000  3
   2653   2652   2658   2659     1  0.0000000  1.6038667  3
   2652   2654   2656   2657     1  0.0000000  1.0460000  1
   2652   2654   2656   2657     1  0.0000000  0.6694400  3
   2648   2646   2645   2649     1  180.0000771  10.0416000  2
   2647   2646   2645   2649     1  180.0000771  10.0416000  2
   2644   2643   2645   2646     1  180.0000771  10.6692000  2
   2644   2643   2645   2649     1  180.0000771  10.6692000  2
   2643   2645   2646   2647     1  180.0000771  10.0416000  2
   2643   2645   2646   2648     1  180.0000771  10.0416000  2
   2642   2641   2640   2650     1  180.0000771  7.7404000  2
   2642   2641   2643   2644     1  180.0000771  27.8236000  2
   2642   2641   2643   2645     1  180.0000771  27.8236000  2
   2640   2638   2654   2655     1  0.0000000  0.6508444  3
   2640   2641   2643   2644     1  180.0000771  27.8236000  2
   2639   2638   2640   2641     1  0.0000000  0.0000000  2
   2639   2638   2640   2650     1  0.0000000  0.0000000  2
   2639   2638   2654   2652     1  0.0000000  0.6508444  3
   2639   2638   2654   2655     1  0.0000000  0.6508444  3
   2639   2638   2654   2656     1  0.0000000  0.6508444  3
   2638   2640   2641   2642     1  180.0000771  7.7404000  2
   2638   2654   2652   2653     1  0.0000000  0.6508444  3
   2638   2654   2656   2657     1  0.0000000  1.0460000  1
   2638   2654   2656   2657     1  0.0000000  0.6694400  3
   2637   2635   2652   2653     1  0.0000000  1.0460000  1
   2637   2635   2652   2653     1  0.0000000  0.0000000  3
   2637   2638   2654   2655     1  0.0000000  1.0460000  1
   2637   2638   2654   2655     1  0.0000000  0.0000000  3
   2636   2635   2637   2638     1  0.0000000  1.6038667  3
   2636   2635   2652   2653     1  0.0000000  0.6508444  3
   2636   2635   2652   2654     1  0.0000000  0.6508444  3
   2636   2635   2652   2658     1  0.0000000  1.0460000  1
   2636   2635   2652   2658     1  0.0000000  0.0000000  3
   2635   2637   2638   2639     1  0.0000000  1.6038667  3
   2635   2652   2654   2655     1  0.0000000  0.6508444  3
   2634   2632   2635   2636     1  0.0000000  0.6508444  3
   2634   2632   2635   2637     1  0.0000000  1.0460000  1
   2634   2632   2635   2637     1  0.0000000  0.0000000  3
   2634   2632   2635   2652     1  0.0000000  0.6508444  3
   2633   2632   2635   2636     1  0.0000000  0.6508444  3
   2633   2632   2635   2637     1  0.0000000  1.0460000  1
   2633   2632   2635   2637     1  0.0000000  0.0000000  3
   2633   2632   2635   2652     1  0.0000000  0.6508444  3
   2632   2635   2652   2653     1  0.0000000  0.6508444  3
   2631   2632   2635   2636     1  0.0000000  1.0460000  1
   2631   2632   2635   2636     1  0.0000000  0.0000000  3
   2628   2631   2632   2633     1  0.0000000  1.6038667  3
   2628   2631   2632   2634     1  0.0000000  1.6038667  3
   2685   2684   2682   2688     1  0.0000000  1.0460000  1
   2685   2684   2682   2688     1  0.0000000  0.0000000  3
   2685   2684   2686   2687     1  0.0000000  0.6973333  3
   2683   2682   2684   2685     1  0.0000000  0.6508444  3
   2683   2682   2684   2686     1  0.0000000  1.0460000  1
   2683   2682   2684   2686     1  0.0000000  0.0000000  3
   2683   2682   2688   2689     1  0.0000000  1.6038667  3
   2682   2684   2686   2687     1  0.0000000  1.0460000  1
   2682   2684   2686   2687     1  0.0000000  0.6694400  3
   2679   2678   2680   2681     1  180.0000771  5.6484000  2
   2677   2676   2678   2679     1  180.0000771  5.6484000  2
   2675   2674   2676   2677     1  180.0000771  9.1002000  2
   2675   2674   2676   2678     1  180.0000771  9.1002000  2
   2674   2676   2678   2679     1  180.0000771  5.6484000  2
   2673   2672   2671   2680     1  180.0000771  7.7404000  2
   2673   2672   2674   2675     1  180.0000771  27.8236000  2
   2673   2672   2674   2676     1  180.0000771  27.8236000  2
   2671   2669   2684   2685     1  0.0000000  0.6508444  3
   2671   2672   2674   2675     1  180.0000771  27.8236000  2
   2671   2680   2678   2679     1  180.0000771  5.6484000  2
   2670   2669   2671   2672     1  0.0000000  0.0000000  2
   2670   2669   2671   2680     1  0.0000000  0.0000000  2
   2670   2669   2684   2682     1  0.0000000  0.6508444  3
   2670   2669   2684   2685     1  0.0000000  0.6508444  3
   2670   2669   2684   2686     1  0.0000000  0.6508444  3
   2669   2671   2672   2673     1  180.0000771  7.7404000  2
   2669   2684   2682   2683     1  0.0000000  0.6508444  3
   2669   2684   2686   2687     1  0.0000000  1.0460000  1
   2669   2684   2686   2687     1  0.0000000  0.6694400  3
   2668   2666   2682   2683     1  0.0000000  1.0460000  1
   2668   2666   2682   2683     1  0.0000000  0.0000000  3
   2668   2669   2684   2685     1  0.0000000  1.0460000  1
   2668   2669   2684   2685     1  0.0000000  0.0000000  3
   2667   2666   2668   2669     1  0.0000000  1.6038667  3
   2667   2666   2682   2683     1  0.0000000  0.6508444  3
   2667   2666   2682   2684     1  0.0000000  0.6508444  3
   2667   2666   2682   2688     1  0.0000000  1.0460000  1
   2667   2666   2682   2688     1  0.0000000  0.0000000  3
   2666   2668   2669   2670     1  0.0000000  1.6038667  3
   2666   2682   2684   2685     1  0.0000000  0.6508444  3
   2665   2663   2666   2667     1  0.0000000  0.6508444  3
   2665   2663   2666   2668     1  0.0000000  1.0460000  1
   2665   2663   2666   2668     1  0.0000000  0.0000000  3
   2665   2663   2666   2682     1  0.0000000  0.6508444  3
   2664   2663   2666   2667     1  0.0000000  0.6508444  3
   2664   2663   2666   2668     1  0.0000000  1.0460000  1
   2664   2663   2666   2668     1  0.0000000  0.0000000  3
   2664   2663   2666   2682     1  0.0000000  0.6508444  3
   2663   2666   2682   2683     1  0.0000000  0.6508444  3
   2662   2663   2666   2667     1  0.0000000  1.0460000  1
   2662   2663   2666   2667     1  0.0000000  0.0000000  3
   2659   2662   2663   2664     1  0.0000000  1.6038667  3
   2659   2662   2663   2665     1  0.0000000  1.6038667  3
   2715   2714   2712   2718     1  0.0000000  1.0460000  1
   2715   2714   2712   2718     1  0.0000000  0.0000000  3
   2715   2714   2716   2717     1  0.0000000  0.6973333  3
   2713   2712   2714   2715     1  0.0000000  0.6508444  3
   2713   2712   2714   2716     1  0.0000000  1.0460000  1
   2713   2712   2714   2716     1  0.0000000  0.0000000  3
   2713   2712   2718   2719     1  0.0000000  1.6038667  3
   2712   2714   2716   2717     1  0.0000000  1.0460000  1
   2712   2714   2716   2717     1  0.0000000  0.6694400  3
   2709   2708   2710   2711     1  180.0000771  5.6484000  2
   2707   2706   2708   2709     1  180.0000771  5.6484000  2
   2705   2704   2706   2707     1  180.0000771  9.1002000  2
   2705   2704   2706   2708     1  180.0000771  9.1002000  2
   2704   2706   2708   2709     1  180.0000771  5.6484000  2
   2703   2702   2701   2710     1  180.0000771  7.7404000  2
   2703   2702   2704   2705     1  180.0000771  27.8236000  2
   2703   2702   2704   2706     1  180.0000771  27.8236000  2
   2701   2699   2714   2715     1  0.0000000  0.6508444  3
   2701   2702   2704   2705     1  180.0000771  27.8236000  2
   2701   2710   2708   2709     1  180.0000771  5.6484000  2
   2700   2699   2701   2702     1  0.0000000  0.0000000  2
   2700   2699   2701   2710     1  0.0000000  0.0000000  2
   2700   2699   2714   2712     1  0.0000000  0.6508444  3
   2700   2699   2714   2715     1  0.0000000  0.6508444  3
   2700   2699   2714   2716     1  0.0000000  0.6508444  3
   2699   2701   2702   2703     1  180.0000771  7.7404000  2
   2699   2714   2712   2713     1  0.0000000  0.6508444  3
   2699   2714   2716   2717     1  0.0000000  1.0460000  1
   2699   2714   2716   2717     1  0.0000000  0.6694400  3
   2698   2696   2712   2713     1  0.0000000  1.0460000  1
   2698   2696   2712   2713     1  0.0000000  0.0000000  3
   2698   2699   2714   2715     1  0.0000000  1.0460000  1
   2698   2699   2714   2715     1  0.0000000  0.0000000  3
   2697   2696   2698   2699     1  0.0000000  1.6038667  3
   2697   2696   2712   2713     1  0.0000000  0.6508444  3
   2697   2696   2712   2714     1  0.0000000  0.6508444  3
   2697   2696   2712   2718     1  0.0000000  1.0460000  1
   2697   2696   2712   2718     1  0.0000000  0.0000000  3
   2696   2698   2699   2700     1  0.0000000  1.6038667  3
   2696   2712   2714   2715     1  0.0000000  0.6508444  3
   2695   2693   2696   2697     1  0.0000000  0.6508444  3
   2695   2693   2696   2698     1  0.0000000  1.0460000  1
   2695   2693   2696   2698     1  0.0000000  0.0000000  3
   2695   2693   2696   2712     1  0.0000000  0.6508444  3
   2694   2693   2696   2697     1  0.0000000  0.6508444  3
   2694   2693   2696   2698     1  0.0000000  1.0460000  1
   2694   2693   2696   2698     1  0.0000000  0.0000000  3
   2694   2693   2696   2712     1  0.0000000  0.6508444  3
   2693   2696   2712   2713     1  0.0000000  0.6508444  3
   2692   2693   2696   2697     1  0.0000000  1.0460000  1
   2692   2693   2696   2697     1  0.0000000  0.0000000  3
   2689   2692   2693   2694     1  0.0000000  1.6038667  3
   2689   2692   2693   2695     1  0.0000000  1.6038667  3
   2745   2744   2742   2748     1  0.0000000  1.0460000  1
   2745   2744   2742   2748     1  0.0000000  0.0000000  3
   2745   2744   2746   2747     1  0.0000000  0.6973333  3
   2743   2742   2744   2745     1  0.0000000  0.6508444  3
   2743   2742   2744   2746     1  0.0000000  1.0460000  1
   2743   2742   2744   2746     1  0.0000000  0.0000000  3
   2743   2742   2748   2749     1  0.0000000  1.6038667  3
   2742   2744   2746   2747     1  0.0000000  1.0460000  1
   2742   2744   2746   2747     1  0.0000000  0.6694400  3
   2739   2738   2740   2741     1  180.0000771  5.6484000  2
   2737   2736   2738   2739     1  180.0000771  5.6484000  2
   2735   2734   2736   2737     1  180.0000771  9.1002000  2
   2735   2734   2736   2738     1  180.0000771  9.1002000  2
   2734   2736   2738   2739     1  180.0000771  5.6484000  2
   2733   2732   2731   2740     1  180.0000771  7.7404000  2
   2733   2732   2734   2735     1  180.0000771  27.8236000  2
   2733   2732   2734   2736     1  180.0000771  27.8236000  2
   2731   2729   2744   2745     1  0.0000000  0.6508444  3
   2731   2732   2734   2735     1  180.0000771  27.8236000  2
   2731   2740   2738   2739     1  180.0000771  5.6484000  2
   2730   2729   2731   2732     1  0.0000000  0.0000000  2
   2730   2729   2731   2740     1  0.0000000  0.0000000  2
   2730   2729   2744   2742     1  0.0000000  0.6508444  3
   2730   2729   2744   2745     1  0.0000000  0.6508444  3
   2730   2729   2744   2746     1  0.0000000  0.6508444  3
   2729   2731   2732   2733     1  180.0000771  7.7404000  2
   2729   2744   2742   2743     1  0.0000000  0.6508444  3
   2729   2744   2746   2747     1  0.0000000  1.0460000  1
   2729   2744   2746   2747     1  0.0000000  0.6694400  3
   2728   2726   2742   2743     1  0.0000000  1.0460000  1
   2728   2726   2742   2743     1  0.0000000  0.0000000  3
   2728   2729   2744   2745     1  0.0000000  1.0460000  1
   2728   2729   2744   2745     1  0.0000000  0.0000000  3
   2727   2726   2728   2729     1  0.0000000  1.6038667  3
   2727   2726   2742   2743     1  0.0000000  0.6508444  3
   2727   2726   2742   2744     1  0.0000000  0.6508444  3
   2727   2726   2742   2748     1  0.0000000  1.0460000  1
   2727   2726   2742   2748     1  0.0000000  0.0000000  3
   2726   2728   2729   2730     1  0.0000000  1.6038667  3
   2726   2742   2744   2745     1  0.0000000  0.6508444  3
   2725   2723   2726   2727     1  0.0000000  0.6508444  3
   2725   2723   2726   2728     1  0.0000000  1.0460000  1
   2725   2723   2726   2728     1  0.0000000  0.0000000  3
   2725   2723   2726   2742     1  0.0000000  0.6508444  3
   2724   2723   2726   2727     1  0.0000000  0.6508444  3
   2724   2723   2726   2728     1  0.0000000  1.0460000  1
   2724   2723   2726   2728     1  0.0000000  0.0000000  3
   2724   2723   2726   2742     1  0.0000000  0.6508444  3
   2723   2726   2742   2743     1  0.0000000  0.6508444  3
   2722   2723   2726   2727     1  0.0000000  1.0460000  1
   2722   2723   2726   2727     1  0.0000000  0.0000000  3
   2719   2722   2723   2724     1  0.0000000  1.6038667  3
   2719   2722   2723   2725     1  0.0000000  1.6038667  3
   2775   2774   2772   2778     1  0.0000000  1.0460000  1
   2775   2774   2772   2778     1  0.0000000  0.0000000  3
   2775   2774   2776   2777     1  0.0000000  0.6973333  3
   2774   2772   2778   2779     1  0.0000000  1.0460000  1
   2774   2772   2778   2779     1  0.0000000  0.6694400  3
   2773   2772   2774   2775     1  0.0000000  0.6508444  3
   2773   2772   2774   2776     1  0.0000000  1.0460000  1
   2773   2772   2774   2776     1  0.0000000  0.0000000  3
   2773   2772   2778   2779     1  0.0000000  0.6973333  3
   2772   2774   2776   2777     1  0.0000000  1.0460000  1
   2772   2774   2776   2777     1  0.0000000  0.6694400  3
   2769   2768   2770   2771     1  180.0000771  5.6484000  2
   2767   2766   2768   2769     1  180.0000771  5.6484000  2
   2765   2764   2766   2767     1  180.0000771  9.1002000  2
   2765   2764   2766   2768     1  180.0000771  9.1002000  2
   2764   2766   2768   2769     1  180.0000771  5.6484000  2
   2763   2762   2761   2770     1  180.0000771  7.7404000  2
   2763   2762   2764   2765     1  180.0000771  27.8236000  2
   2763   2762   2764   2766     1  180.0000771  27.8236000  2
   2761   2759   2774   2775     1  0.0000000  0.6508444  3
   2761   2762   2764   2765     1  180.0000771  27.8236000  2
   2761   2770   2768   2769     1  180.0000771  5.6484000  2
   2760   2759   2761   2762     1  0.0000000  0.0000000  2
   2760   2759   2761   2770     1  0.0000000  0.0000000  2
   2760   2759   2774   2772     1  0.0000000  0.6508444  3
   2760   2759   2774   2775     1  0.0000000  0.6508444  3
   2760   2759   2774   2776     1  0.0000000  0.6508444  3
   2759   2761   2762   2763     1  180.0000771  7.7404000  2
   2759   2774   2772   2773     1  0.0000000  0.6508444  3
   2759   2774   2776   2777     1  0.0000000  1.0460000  1
   2759   2774   2776   2777     1  0.0000000  0.6694400  3
   2758   2756   2772   2773     1  0.0000000  1.0460000  1
   2758   2756   2772   2773     1  0.0000000  0.0000000  3
   2758   2759   2774   2775     1  0.0000000  1.0460000  1
   2758   2759   2774   2775     1  0.0000000  0.0000000  3
   2757   2756   2758   2759     1  0.0000000  1.6038667  3
   2757   2756   2772   2773     1  0.0000000  0.6508444  3
   2757   2756   2772   2774     1  0.0000000  0.6508444  3
   2757   2756   2772   2778     1  0.0000000  1.0460000  1
   2757   2756   2772   2778     1  0.0000000  0.0000000  3
   2756   2758   2759   2760     1  0.0000000  1.6038667  3
   2756   2772   2774   2775     1  0.0000000  0.6508444  3
   2756   2772   2778   2779     1  0.0000000  1.0460000  1
   2756   2772   2778   2779     1  0.0000000  0.6694400  3
   2755   2753   2756   2757     1  0.0000000  0.6508444  3
   2755   2753   2756   2758     1  0.0000000  1.0460000  1
   2755   2753   2756   2758     1  0.0000000  0.0000000  3
   2755   2753   2756   2772     1  0.0000000  0.6508444  3
   2754   2753   2756   2757     1  0.0000000  0.6508444  3
   2754   2753   2756   2758     1  0.0000000  1.0460000  1
   2754   2753   2756   2758     1  0.0000000  0.0000000  3
   2754   2753   2756   2772     1  0.0000000  0.6508444  3
   2753   2756   2772   2773     1  0.0000000  0.6508444  3
   2752   2753   2756   2757     1  0.0000000  1.0460000  1
   2752   2753   2756   2757     1  0.0000000  0.0000000  3
   2749   2752   2753   2754     1  0.0000000  1.6038667  3
   2749   2752   2753   2755     1  0.0000000  1.6038667  3
     20     22     21     23     4  180.0000771  4.1840000  2
     16     20     18     19     4  180.0000771  4.1840000  2
     11     14     12     13     4  180.0000771  4.6024000  2
     50     54     52     53     4  180.0000771  4.1840000  2
     46     50     48     49     4  180.0000771  4.6024000  2
     45     48     46     47     4  180.0000771  4.6024000  2
     80     84     82     83     4  180.0000771  4.1840000  2
     76     80     78     79     4  180.0000771  4.6024000  2
     75     78     76     77     4  180.0000771  4.6024000  2
    110    114    112    113     4  180.0000771  4.1840000  2
    106    110    108    109     4  180.0000771  4.6024000  2
    105    108    106    107     4  180.0000771  4.6024000  2
    140    144    142    143     4  180.0000771  4.1840000  2
    136    140    138    139     4  180.0000771  4.6024000  2
    135    138    136    137     4  180.0000771  4.6024000  2
    170    174    172    173     4  180.0000771  4.1840000  2
    166    170    168    169     4  180.0000771  4.6024000  2
    165    168    166    167     4  180.0000771  4.6024000  2
    204    207    205    206     4  180.0000771  4.6024000  2
    200    202    201    203     4  180.0000771  4.1840000  2
    195    198    196    197     4  180.0000771  4.6024000  2
    237    240    238    239     4  180.0000771  4.6024000  2
    233    235    234    236     4  180.0000771  4.1840000  2
    228    231    229    230     4  180.0000771  4.6024000  2
    270    273    271    272     4  180.0000771  4.6024000  2
    266    268    267    269     4  180.0000771  4.1840000  2
    261    264    262    263     4  180.0000771  4.6024000  2
    299    301    300    302     4  180.0000771  4.1840000  2
    295    299    297    298     4  180.0000771  4.6024000  2
    294    297    295    296     4  180.0000771  4.6024000  2
    334    336    335    337     4  180.0000771  4.1840000  2
    330    334    332    333     4  180.0000771  4.1840000  2
    325    328    326    327     4  180.0000771  4.6024000  2
    368    370    369    371     4  180.0000771  4.1840000  2
    364    368    366    367     4  180.0000771  4.1840000  2
    359    362    360    361     4  180.0000771  4.6024000  2
    402    404    403    405     4  180.0000771  4.1840000  2
    398    402    400    401     4  180.0000771  4.1840000  2
    393    396    394    395     4  180.0000771  4.6024000  2
    432    436    434    435     4  180.0000771  4.1840000  2
    428    432    430    431     4  180.0000771  4.6024000  2
    427    430    428    429     4  180.0000771  4.6024000  2
    462    466    464    465     4  180.0000771  4.1840000  2
    458    462    460    461     4  180.0000771  4.6024000  2
    457    460    458    459     4  180.0000771  4.6024000  2
    492    496    494    495     4  180.0000771  4.1840000  2
    488    492    490    491     4  180.0000771  4.6024000  2
    487    490    488    489     4  180.0000771  4.6024000  2
    526    528    527    529     4  180.0000771  4.1840000  2
    522    526    524    525     4  180.0000771  4.1840000  2
    517    520    518    519     4  180.0000771  4.6024000  2
    556    558    557    559     4  180.0000771  4.1840000  2
    552    556    554    555     4  180.0000771  4.6024000  2
    551    554    552    553     4  180.0000771  4.6024000  2
    591    593    592    594     4  180.0000771  4.1840000  2
    587    591    589    590     4  180.0000771  4.1840000  2
    582    585    583    584     4  180.0000771  4.6024000  2
    625    627    626    628     4  180.0000771  4.1840000  2
    621    625    623    624     4  180.0000771  4.1840000  2
    616    619    617    618     4  180.0000771  4.6024000  2
    655    659    657    658     4  180.0000771  4.1840000  2
    651    655    653    654     4  180.0000771  4.6024000  2
    650    653    651    652     4  180.0000771  4.6024000  2
    689    691    690    692     4  180.0000771  4.1840000  2
    685    689    687    688     4  180.0000771  4.1840000  2
    680    683    681    682     4  180.0000771  4.6024000  2
    719    723    721    722     4  180.0000771  4.1840000  2
    715    719    717    718     4  180.0000771  4.6024000  2
    714    717    715    716     4  180.0000771  4.6024000  2
    753    756    754    755     4  180.0000771  4.6024000  2
    749    751    750    752     4  180.0000771  4.1840000  2
    744    747    745    746     4  180.0000771  4.6024000  2
    786    789    787    788     4  180.0000771  4.6024000  2
    782    784    783    785     4  180.0000771  4.1840000  2
    777    780    778    779     4  180.0000771  4.6024000  2
    819    821    820    822     4  180.0000771  4.1840000  2
    815    819    817    818     4  180.0000771  4.1840000  2
    810    813    811    812     4  180.0000771  4.6024000  2
    849    853    851    852     4  180.0000771  4.1840000  2
    845    849    847    848     4  180.0000771  4.6024000  2
    844    847    845    846     4  180.0000771  4.6024000  2
    883    885    884    886     4  180.0000771  4.1840000  2
    879    883    881    882     4  180.0000771  4.1840000  2
    874    877    875    876     4  180.0000771  4.6024000  2
    913    915    914    916     4  180.0000771  4.1840000  2
    909    913    911    912     4  180.0000771  4.6024000  2
    908    911    909    910     4  180.0000771  4.6024000  2
    948    951    949    950     4  180.0000771  4.6024000  2
    944    946    945    947     4  180.0000771  4.1840000  2
    939    942    940    941     4  180.0000771  4.6024000  2
    981    983    982    984     4  180.0000771  4.1840000  2
    977    981    979    980     4  180.0000771  4.1840000  2
    972    975    973    974     4  180.0000771  4.6024000  2
   1011   1013   1012   1014     4  180.0000771  4.1840000  2
   1007   1011   1009   1010     4  180.0000771  4.6024000  2
   1006   1009   1007   1008     4  180.0000771  4.6024000  2
   1042   1044   1043   1045     4  180.0000771  4.1840000  2
   1038   1042   1040   1041     4  180.0000771  4.6024000  2
   1037   1040   1038   1039     4  180.0000771  4.6024000  2
   1073   1075   1074   1076     4  180.0000771  4.1840000  2
   1069   1073   1071   1072     4  180.0000771  4.6024000  2
   1068   1071   1069   1070     4  180.0000771  4.6024000  2
   1108   1110   1109   1111     4  180.0000771  4.1840000  2
   1104   1108   1106   1107     4  180.0000771  4.1840000  2
   1099   1102   1100   1101     4  180.0000771  4.6024000  2
   1138   1142   1140   1141     4  180.0000771  4.1840000  2
   1134   1138   1136   1137     4  180.0000771  4.6024000  2
   1133   1136   1134   1135     4  180.0000771  4.6024000  2
   1168   1170   1169   1171     4  180.0000771  4.1840000  2
   1164   1168   1166   1167     4  180.0000771  4.6024000  2
   1163   1166   1164   1165     4  180.0000771  4.6024000  2
   1199   1203   1201   1202     4  180.0000771  4.1840000  2
   1195   1199   1197   1198     4  180.0000771  4.6024000  2
   1194   1197   1195   1196     4  180.0000771  4.6024000  2
   1229   1233   1231   1232     4  180.0000771  4.1840000  2
   1225   1229   1227   1228     4  180.0000771  4.6024000  2
   1224   1227   1225   1226     4  180.0000771  4.6024000  2
   1263   1266   1264   1265     4  180.0000771  4.6024000  2
   1259   1261   1260   1262     4  180.0000771  4.1840000  2
   1254   1257   1255   1256     4  180.0000771  4.6024000  2
   1292   1294   1293   1295     4  180.0000771  4.1840000  2
   1288   1292   1290   1291     4  180.0000771  4.6024000  2
   1287   1290   1288   1289     4  180.0000771  4.6024000  2
   1327   1330   1328   1329     4  180.0000771  4.6024000  2
   1323   1325   1324   1326     4  180.0000771  4.1840000  2
   1318   1321   1319   1320     4  180.0000771  4.6024000  2
   1356   1358   1357   1359     4  180.0000771  4.1840000  2
   1352   1356   1354   1355     4  180.0000771  4.6024000  2
   1351   1354   1352   1353     4  180.0000771  4.6024000  2
   1387   1389   1388   1390     4  180.0000771  4.1840000  2
   1383   1387   1385   1386     4  180.0000771  4.6024000  2
   1382   1385   1383   1384     4  180.0000771  4.6024000  2
   1422   1424   1423   1425     4  180.0000771  4.1840000  2
   1418   1422   1420   1421     4  180.0000771  4.1840000  2
   1413   1416   1414   1415     4  180.0000771  4.6024000  2
   1452   1456   1454   1455     4  180.0000771  4.1840000  2
   1448   1452   1450   1451     4  180.0000771  4.6024000  2
   1447   1450   1448   1449     4  180.0000771  4.6024000  2
   1486   1488   1487   1489     4  180.0000771  4.1840000  2
   1482   1486   1484   1485     4  180.0000771  4.1840000  2
   1477   1480   1478   1479     4  180.0000771  4.6024000  2
   1516   1518   1517   1519     4  180.0000771  4.1840000  2
   1512   1516   1514   1515     4  180.0000771  4.6024000  2
   1511   1514   1512   1513     4  180.0000771  4.6024000  2
   1551   1553   1552   1554     4  180.0000771  4.1840000  2
   1547   1551   1549   1550     4  180.0000771  4.1840000  2
   1542   1545   1543   1544     4  180.0000771  4.6024000  2
   1585   1587   1586   1588     4  180.0000771  4.1840000  2
   1581   1585   1583   1584     4  180.0000771  4.1840000  2
   1576   1579   1577   1578     4  180.0000771  4.6024000  2
   1615   1617   1616   1618     4  180.0000771  4.1840000  2
   1611   1615   1613   1614     4  180.0000771  4.6024000  2
   1610   1613   1611   1612     4  180.0000771  4.6024000  2
   1650   1653   1651   1652     4  180.0000771  4.6024000  2
   1646   1648   1647   1649     4  180.0000771  4.1840000  2
   1641   1644   1642   1643     4  180.0000771  4.6024000  2
   1679   1681   1680   1682     4  180.0000771  4.1840000  2
   1675   1679   1677   1678     4  180.0000771  4.6024000  2
   1674   1677   1675   1676     4  180.0000771  4.6024000  2
   1714   1717   1715   1716     4  180.0000771  4.6024000  2
   1710   1712   1711   1713     4  180.0000771  4.1840000  2
   1705   1708   1706   1707     4  180.0000771  4.6024000  2
   1747   1749   1748   1750     4  180.0000771  4.1840000  2
   1743   1747   1745   1746     4  180.0000771  4.1840000  2
   1738   1741   1739   1740     4  180.0000771  4.6024000  2
   1781   1783   1782   1784     4  180.0000771  4.1840000  2
   1777   1781   1779   1780     4  180.0000771  4.1840000  2
   1772   1775   1773   1774     4  180.0000771  4.6024000  2
   1811   1813   1812   1814     4  180.0000771  4.1840000  2
   1807   1811   1809   1810     4  180.0000771  4.6024000  2
   1806   1809   1807   1808     4  180.0000771  4.6024000  2
   1846   1849   1847   1848     4  180.0000771  4.6024000  2
   1842   1844   1843   1845     4  180.0000771  4.1840000  2
   1837   1840   1838   1839     4  180.0000771  4.6024000  2
   1875   1877   1876   1878     4  180.0000771  4.1840000  2
   1871   1875   1873   1874     4  180.0000771  4.6024000  2
   1870   1873   1871   1872     4  180.0000771  4.6024000  2
   1906   1910   1908   1909     4  180.0000771  4.1840000  2
   1902   1906   1904   1905     4  180.0000771  4.6024000  2
   1901   1904   1902   1903     4  180.0000771  4.6024000  2
   1940   1943   1941   1942     4  180.0000771  4.6024000  2
   1936   1938   1937   1939     4  180.0000771  4.1840000  2
   1931   1934   1932   1933     4  180.0000771  4.6024000  2
   1973   1975   1974   1976     4  180.0000771  4.1840000  2
   1969   1973   1971   1972     4  180.0000771  4.1840000  2
   1964   1967   1965   1966     4  180.0000771  4.6024000  2
   2003   2007   2005   2006     4  180.0000771  4.1840000  2
   1999   2003   2001   2002     4  180.0000771  4.6024000  2
   1998   2001   1999   2000     4  180.0000771  4.6024000  2
   2037   2040   2038   2039     4  180.0000771  4.6024000  2
   2033   2035   2034   2036     4  180.0000771  4.1840000  2
   2028   2031   2029   2030     4  180.0000771  4.6024000  2
   2066   2068   2067   2069     4  180.0000771  4.1840000  2
   2062   2066   2064   2065     4  180.0000771  4.6024000  2
   2061   2064   2062   2063     4  180.0000771  4.6024000  2
   2097   2101   2099   2100     4  180.0000771  4.1840000  2
   2093   2097   2095   2096     4  180.0000771  4.6024000  2
   2092   2095   2093   2094     4  180.0000771  4.6024000  2
   2131   2133   2132   2134     4  180.0000771  4.1840000  2
   2127   2131   2129   2130     4  180.0000771  4.1840000  2
   2122   2125   2123   2124     4  180.0000771  4.6024000  2
   2165   2168   2166   2167     4  180.0000771  4.6024000  2
   2161   2163   2162   2164     4  180.0000771  4.1840000  2
   2156   2159   2157   2158     4  180.0000771  4.6024000  2
   2194   2198   2196   2197     4  180.0000771  4.1840000  2
   2190   2194   2192   2193     4  180.0000771  4.6024000  2
   2189   2192   2190   2191     4  180.0000771  4.6024000  2
   2228   2230   2229   2231     4  180.0000771  4.1840000  2
   2224   2228   2226   2227     4  180.0000771  4.1840000  2
   2219   2222   2220   2221     4  180.0000771  4.6024000  2
   2258   2262   2260   2261     4  180.0000771  4.1840000  2
   2254   2258   2256   2257     4  180.0000771  4.6024000  2
   2253   2256   2254   2255     4  180.0000771  4.6024000  2
   2288   2290   2289   2291     4  180.0000771  4.1840000  2
   2284   2288   2286   2287     4  180.0000771  4.6024000  2
   2283   2286   2284   2285     4  180.0000771  4.6024000  2
   2323   2325   2324   2326     4  180.0000771  4.1840000  2
   2319   2323   2321   2322     4  180.0000771  4.1840000  2
   2314   2317   2315   2316     4  180.0000771  4.6024000  2
   2353   2357   2355   2356     4  180.0000771  4.1840000  2
   2349   2353   2351   2352     4  180.0000771  4.6024000  2
   2348   2351   2349   2350     4  180.0000771  4.6024000  2
   2387   2390   2388   2389     4  180.0000771  4.6024000  2
   2383   2385   2384   2386     4  180.0000771  4.1840000  2
   2378   2381   2379   2380     4  180.0000771  4.6024000  2
   2416   2420   2418   2419     4  180.0000771  4.1840000  2
   2412   2416   2414   2415     4  180.0000771  4.6024000  2
   2411   2414   2412   2413     4  180.0000771  4.6024000  2
   2450   2453   2451   2452     4  180.0000771  4.6024000  2
   2446   2448   2447   2449     4  180.0000771  4.1840000  2
   2441   2444   2442   2443     4  180.0000771  4.6024000  2
   2479   2481   2480   2482     4  180.0000771  4.1840000  2
   2475   2479   2477   2478     4  180.0000771  4.6024000  2
   2474   2477   2475   2476     4  180.0000771  4.6024000  2
   2514   2517   2515   2516     4  180.0000771  4.6024000  2
   2510   2512   2511   2513     4  180.0000771  4.1840000  2
   2505   2508   2506   2507     4  180.0000771  4.6024000  2
   2547   2549   2548   2550     4  180.0000771  4.1840000  2
   2543   2547   2545   2546     4  180.0000771  4.1840000  2
   2538   2541   2539   2540     4  180.0000771  4.6024000  2
   2581   2583   2582   2584     4  180.0000771  4.1840000  2
   2577   2581   2579   2580     4  180.0000771  4.1840000  2
   2572   2575   2573   2574     4  180.0000771  4.6024000  2
   2615   2617   2616   2618     4  180.0000771  4.1840000  2
   2611   2615   2613   2614     4  180.0000771  4.1840000  2
   2606   2609   2607   2608     4  180.0000771  4.6024000  2
   2645   2647   2646   2648     4  180.0000771  4.1840000  2
   2641   2645   2643   2644     4  180.0000771  4.6024000  2
   2640   2643   2641   2642     4  180.0000771  4.6024000  2
   2676   2680   2678   2679     4  180.0000771  4.1840000  2
   2672   2676   2674   2675     4  180.0000771  4.6024000  2
   2671   2674   2672   2673     4  180.0000771  4.6024000  2
   2706   2710   2708   2709     4  180.0000771  4.1840000  2
   2702   2706   2704   2705     4  180.0000771  4.6024000  2
   2701   2704   2702   2703     4  180.0000771  4.6024000  2
   2736   2740   2738   2739     4  180.0000771  4.1840000  2
   2732   2736   2734   2735     4  180.0000771  4.6024000  2
   2731   2734   2732   2733     4  180.0000771  4.6024000  2
   2766   2770   2768   2769     4  180.0000771  4.1840000  2
   2762   2766   2764   2765     4  180.0000771  4.6024000  2
   2761   2764   2762   2763     4  180.0000771  4.6024000  2


[ moleculetype ]
; Name            nrexcl
Na+          3

[ atoms ]
;   nr       type  resnr residue  atom   cgnr    charge       mass  typeB    chargeB      massB
; residue    1 Na+ rtp Na+ q 1.0
    1        Na+      1    Na+    Na+      1 1.00000000  22.990000   ; qtot 1.000000


[ moleculetype ]
; Name            nrexcl
Cl-          3

[ atoms ]
;   nr       type  resnr residue  atom   cgnr    charge       mass  typeB    chargeB      massB
; residue    1 Cl- rtp Cl- q -1.0
    1        Cl-      1    Cl-    Cl-      1 -1.00000000  35.450000   ; qtot -1.000000


[ moleculetype ]
; Name            nrexcl
WAT          3

[ atoms ]
;   nr       type  resnr residue  atom   cgnr    charge       mass  typeB    chargeB      massB
; residue    1 WAT rtp WAT q 0.0
    1         OW      1    WAT      O      1 0.00000000  16.000000   ; qtot 0.000000
    2         HW      1    WAT     H1      2 0.58000000   1.008000   ; qtot 0.580000
    3         HW      1    WAT     H2      3 0.58000000   1.008000   ; qtot 1.160000
    4         EP      1    WAT    EPW      4 -1.16000000   0.000000   ; qtot 0.000000

#ifdef FLEXIBLE

[ bonds ]
;    ai     aj funct         c0         c1         c2         c3
      2      1     1   0.09572 462750.400000
      3      1     1   0.09572 462750.400000
      3      2     1   0.15136 462750.400000


#else

[ settles ]
; i     funct   doh     dhh
1     1   0.09572000   0.15136000

#endif

[ virtual_sites3 ]
; Site  from                   funct
4     1    2    3    1      0.131894  0.131894

[ exclusions ]
1  2  3  4
2  1  3  4
3  1  2  4
4  1  2  3

[ system ]
; Name
Generic title

[ molecules ]
; Compound       #mols
system1              1
Na+                147
Cl-                 61
WAT              31223
